<?xml version="1.0" encoding="UTF-8"?>

<!-- generated on 2024-09-16 16:02:59 by Eclipse SUMO GUI Version 1.20.0
<configuration xmlns:xsi="http://www.w3.org/2001/XMLSchema-instance" xsi:noNamespaceSchemaLocation="http://sumo.dlr.de/xsd/sumoConfiguration.xsd">

    <input>
        <net-file value="H:\SUMO- Study Area\MainNetworkFile.net.xml"/>
        <route-files value="H:\SUMO- Study Area\Demand.rou.xml"/>
    </input>

    <output>
        <full-output value="H:\SUMO- Study Area\full-output.xml"/>
        <queue-output value="H:\SUMO- Study Area\queue-output.xml"/>
        <summary-output value="H:\SUMO- Study Area\summary-output.xml"/>
        <tripinfo-output value="H:\SUMO- Study Area\tripinfo-output.xml"/>
        <vehroute-output value="H:\SUMO- Study Area\vehroute-output.xml"/>
    </output>

    <time>
        <begin value="0"/>
        <end value="1000"/>
    </time>

    <processing>
        <time-to-teleport value="-1"/>
    </processing>

    <gui_only>
        <gui-settings-file value="H:\SUMO- Study Area\MapDecals.xml"/>
    </gui_only>

</configuration>
-->

<queue-export xmlns:xsi="http://www.w3.org/2001/XMLSchema-instance" xsi:noNamespaceSchemaLocation="http://sumo.dlr.de/xsd/queue_file.xsd">
    <data timestep="0.00">
        <lanes/>
    </data>
    <data timestep="1.00">
        <lanes/>
    </data>
    <data timestep="2.00">
        <lanes/>
    </data>
    <data timestep="3.00">
        <lanes/>
    </data>
    <data timestep="4.00">
        <lanes/>
    </data>
    <data timestep="5.00">
        <lanes/>
    </data>
    <data timestep="6.00">
        <lanes/>
    </data>
    <data timestep="7.00">
        <lanes>
            <lane id="E0_1" queueing_time="1.00" queueing_length="71.44" queueing_length_experimental="0.00"/>
            <lane id="E16_0" queueing_time="0.00" queueing_length="0.00" queueing_length_experimental="3.07"/>
        </lanes>
    </data>
    <data timestep="8.00">
        <lanes>
            <lane id="E16_0" queueing_time="0.00" queueing_length="0.00" queueing_length_experimental="2.66"/>
        </lanes>
    </data>
    <data timestep="9.00">
        <lanes>
            <lane id="E16_0" queueing_time="0.00" queueing_length="0.00" queueing_length_experimental="2.32"/>
        </lanes>
    </data>
    <data timestep="10.00">
        <lanes>
            <lane id="E8_1" queueing_time="1.00" queueing_length="32.64" queueing_length_experimental="32.64"/>
        </lanes>
    </data>
    <data timestep="11.00">
        <lanes>
            <lane id="E8_1" queueing_time="1.00" queueing_length="47.08" queueing_length_experimental="0.00"/>
        </lanes>
    </data>
    <data timestep="12.00">
        <lanes>
            <lane id="E8_1" queueing_time="2.00" queueing_length="47.08" queueing_length_experimental="0.00"/>
        </lanes>
    </data>
    <data timestep="13.00">
        <lanes>
            <lane id=":J9_0_0" queueing_time="0.00" queueing_length="0.00" queueing_length_experimental="7.82"/>
            <lane id="E16_0" queueing_time="1.00" queueing_length="5.11" queueing_length_experimental="5.11"/>
        </lanes>
    </data>
    <data timestep="14.00">
        <lanes>
            <lane id=":J9_0_0" queueing_time="0.00" queueing_length="0.00" queueing_length_experimental="7.21"/>
        </lanes>
    </data>
    <data timestep="15.00">
        <lanes>
            <lane id=":J9_0_0" queueing_time="1.00" queueing_length="7.20" queueing_length_experimental="7.20"/>
        </lanes>
    </data>
    <data timestep="16.00">
        <lanes>
            <lane id=":J9_0_0" queueing_time="2.00" queueing_length="7.20" queueing_length_experimental="7.20"/>
        </lanes>
    </data>
    <data timestep="17.00">
        <lanes>
            <lane id=":J9_0_0" queueing_time="3.00" queueing_length="7.20" queueing_length_experimental="7.20"/>
        </lanes>
    </data>
    <data timestep="18.00">
        <lanes>
            <lane id=":J9_0_0" queueing_time="4.00" queueing_length="7.20" queueing_length_experimental="7.20"/>
            <lane id="E6_0" queueing_time="0.00" queueing_length="0.00" queueing_length_experimental="10.55"/>
        </lanes>
    </data>
    <data timestep="19.00">
        <lanes>
            <lane id=":J9_0_0" queueing_time="5.00" queueing_length="7.20" queueing_length_experimental="7.20"/>
            <lane id=":J9_1_0" queueing_time="0.00" queueing_length="0.00" queueing_length_experimental="12.31"/>
            <lane id="E6_0" queueing_time="1.00" queueing_length="10.47" queueing_length_experimental="15.32"/>
        </lanes>
    </data>
    <data timestep="20.00">
        <lanes>
            <lane id=":J24_2_1" queueing_time="0.00" queueing_length="0.00" queueing_length_experimental="5.24"/>
            <lane id=":J9_0_0" queueing_time="6.00" queueing_length="7.20" queueing_length_experimental="7.20"/>
            <lane id=":J9_1_0" queueing_time="0.00" queueing_length="0.00" queueing_length_experimental="12.16"/>
            <lane id="E6_0" queueing_time="2.00" queueing_length="15.25" queueing_length_experimental="15.25"/>
            <lane id="E6_1" queueing_time="0.00" queueing_length="0.00" queueing_length_experimental="15.26"/>
        </lanes>
    </data>
    <data timestep="21.00">
        <lanes>
            <lane id=":J24_2_1" queueing_time="0.00" queueing_length="0.00" queueing_length_experimental="5.12"/>
            <lane id=":J9_0_0" queueing_time="7.00" queueing_length="7.20" queueing_length_experimental="7.20"/>
            <lane id="E6_0" queueing_time="3.00" queueing_length="15.16" queueing_length_experimental="15.16"/>
            <lane id="E6_1" queueing_time="0.00" queueing_length="0.00" queueing_length_experimental="15.05"/>
        </lanes>
    </data>
    <data timestep="22.00">
        <lanes>
            <lane id=":J24_2_1" queueing_time="1.00" queueing_length="5.11" queueing_length_experimental="5.11"/>
            <lane id=":J9_0_0" queueing_time="8.00" queueing_length="7.20" queueing_length_experimental="7.20"/>
            <lane id="E6_0" queueing_time="4.00" queueing_length="15.16" queueing_length_experimental="22.86"/>
            <lane id="E6_1" queueing_time="0.00" queueing_length="0.00" queueing_length_experimental="14.07"/>
        </lanes>
    </data>
    <data timestep="23.00">
        <lanes>
            <lane id=":J24_2_0" queueing_time="0.00" queueing_length="0.00" queueing_length_experimental="7.31"/>
            <lane id=":J24_2_1" queueing_time="2.00" queueing_length="5.10" queueing_length_experimental="5.10"/>
            <lane id=":J9_0_0" queueing_time="9.00" queueing_length="7.20" queueing_length_experimental="7.20"/>
            <lane id="E6_0" queueing_time="5.00" queueing_length="15.15" queueing_length_experimental="22.70"/>
        </lanes>
    </data>
    <data timestep="24.00">
        <lanes>
            <lane id=":J9_0_0" queueing_time="10.00" queueing_length="7.20" queueing_length_experimental="7.20"/>
            <lane id="E4_1" queueing_time="0.00" queueing_length="0.00" queueing_length_experimental="7.36"/>
            <lane id="E6_0" queueing_time="6.00" queueing_length="22.67" queueing_length_experimental="22.67"/>
        </lanes>
    </data>
    <data timestep="25.00">
        <lanes>
            <lane id=":J9_0_0" queueing_time="11.00" queueing_length="7.20" queueing_length_experimental="7.20"/>
            <lane id="E4_1" queueing_time="0.00" queueing_length="0.00" queueing_length_experimental="7.26"/>
            <lane id="E6_0" queueing_time="7.00" queueing_length="22.66" queueing_length_experimental="30.20"/>
        </lanes>
    </data>
    <data timestep="26.00">
        <lanes>
            <lane id=":J9_0_0" queueing_time="12.00" queueing_length="7.20" queueing_length_experimental="7.20"/>
            <lane id="E4_1" queueing_time="1.00" queueing_length="7.20" queueing_length_experimental="7.20"/>
            <lane id="E6_0" queueing_time="8.00" queueing_length="30.18" queueing_length_experimental="30.18"/>
        </lanes>
    </data>
    <data timestep="27.00">
        <lanes>
            <lane id=":J9_0_0" queueing_time="13.00" queueing_length="7.20" queueing_length_experimental="7.20"/>
            <lane id="E4_1" queueing_time="2.00" queueing_length="7.20" queueing_length_experimental="7.20"/>
            <lane id="E6_0" queueing_time="9.00" queueing_length="30.17" queueing_length_experimental="30.17"/>
        </lanes>
    </data>
    <data timestep="28.00">
        <lanes>
            <lane id=":J9_0_0" queueing_time="14.00" queueing_length="7.20" queueing_length_experimental="7.20"/>
            <lane id="E4_0" queueing_time="0.00" queueing_length="0.00" queueing_length_experimental="7.42"/>
            <lane id="E4_1" queueing_time="3.00" queueing_length="7.20" queueing_length_experimental="7.20"/>
            <lane id="E6_0" queueing_time="10.00" queueing_length="30.16" queueing_length_experimental="30.16"/>
        </lanes>
    </data>
    <data timestep="29.00">
        <lanes>
            <lane id=":J9_0_0" queueing_time="15.00" queueing_length="7.20" queueing_length_experimental="7.20"/>
            <lane id="E4_0" queueing_time="0.00" queueing_length="0.00" queueing_length_experimental="7.31"/>
            <lane id="E4_1" queueing_time="4.00" queueing_length="7.20" queueing_length_experimental="7.20"/>
            <lane id="E6_0" queueing_time="11.00" queueing_length="30.16" queueing_length_experimental="37.79"/>
        </lanes>
    </data>
    <data timestep="30.00">
        <lanes>
            <lane id=":J9_0_0" queueing_time="16.00" queueing_length="7.20" queueing_length_experimental="7.20"/>
            <lane id="E4_0" queueing_time="1.00" queueing_length="7.24" queueing_length_experimental="7.24"/>
            <lane id="E4_1" queueing_time="5.00" queueing_length="7.20" queueing_length_experimental="7.20"/>
            <lane id="E6_0" queueing_time="12.00" queueing_length="37.69" queueing_length_experimental="37.69"/>
        </lanes>
    </data>
    <data timestep="31.00">
        <lanes>
            <lane id=":J9_0_0" queueing_time="17.00" queueing_length="7.20" queueing_length_experimental="7.20"/>
            <lane id="E4_0" queueing_time="2.00" queueing_length="7.21" queueing_length_experimental="7.21"/>
            <lane id="E4_1" queueing_time="6.00" queueing_length="7.20" queueing_length_experimental="7.20"/>
            <lane id="E6_0" queueing_time="13.00" queueing_length="37.67" queueing_length_experimental="45.36"/>
        </lanes>
    </data>
    <data timestep="32.00">
        <lanes>
            <lane id=":J9_0_0" queueing_time="18.00" queueing_length="7.20" queueing_length_experimental="7.20"/>
            <lane id="E4_0" queueing_time="3.00" queueing_length="7.20" queueing_length_experimental="16.89"/>
            <lane id="E4_1" queueing_time="7.00" queueing_length="7.20" queueing_length_experimental="7.20"/>
            <lane id="E6_0" queueing_time="14.00" queueing_length="37.66" queueing_length_experimental="45.24"/>
        </lanes>
    </data>
    <data timestep="33.00">
        <lanes>
            <lane id=":J9_0_0" queueing_time="19.00" queueing_length="7.20" queueing_length_experimental="7.20"/>
            <lane id="E4_0" queueing_time="4.00" queueing_length="16.84" queueing_length_experimental="16.84"/>
            <lane id="E4_1" queueing_time="8.00" queueing_length="7.20" queueing_length_experimental="7.20"/>
            <lane id="E6_0" queueing_time="15.00" queueing_length="45.18" queueing_length_experimental="52.96"/>
        </lanes>
    </data>
    <data timestep="34.00">
        <lanes>
            <lane id=":J9_0_0" queueing_time="20.00" queueing_length="7.20" queueing_length_experimental="7.20"/>
            <lane id="E4_0" queueing_time="5.00" queueing_length="16.81" queueing_length_experimental="16.81"/>
            <lane id="E6_0" queueing_time="16.00" queueing_length="45.16" queueing_length_experimental="52.78"/>
        </lanes>
    </data>
    <data timestep="35.00">
        <lanes>
            <lane id=":J9_0_0" queueing_time="21.00" queueing_length="7.20" queueing_length_experimental="7.20"/>
            <lane id="E4_0" queueing_time="3.00" queueing_length="16.80" queueing_length_experimental="16.80"/>
            <lane id="E6_0" queueing_time="17.00" queueing_length="45.16" queueing_length_experimental="57.53"/>
        </lanes>
    </data>
    <data timestep="36.00">
        <lanes>
            <lane id=":J9_0_0" queueing_time="22.00" queueing_length="7.20" queueing_length_experimental="7.20"/>
            <lane id="E4_0" queueing_time="0.00" queueing_length="0.00" queueing_length_experimental="15.77"/>
            <lane id="E6_0" queueing_time="18.00" queueing_length="52.66" queueing_length_experimental="57.42"/>
        </lanes>
    </data>
    <data timestep="37.00">
        <lanes>
            <lane id=":J9_0_0" queueing_time="23.00" queueing_length="7.20" queueing_length_experimental="7.20"/>
            <lane id="E6_0" queueing_time="19.00" queueing_length="57.37" queueing_length_experimental="57.37"/>
        </lanes>
    </data>
    <data timestep="38.00">
        <lanes>
            <lane id=":J9_0_0" queueing_time="24.00" queueing_length="7.20" queueing_length_experimental="7.20"/>
            <lane id="E6_0" queueing_time="20.00" queueing_length="64.88" queueing_length_experimental="57.37"/>
        </lanes>
    </data>
    <data timestep="39.00">
        <lanes>
            <lane id=":J9_0_0" queueing_time="25.00" queueing_length="7.20" queueing_length_experimental="7.20"/>
            <lane id="E6_0" queueing_time="21.00" queueing_length="64.87" queueing_length_experimental="57.36"/>
        </lanes>
    </data>
    <data timestep="40.00">
        <lanes>
            <lane id=":J9_0_0" queueing_time="26.00" queueing_length="7.20" queueing_length_experimental="7.20"/>
            <lane id="E1_0" queueing_time="0.00" queueing_length="0.00" queueing_length_experimental="12.30"/>
            <lane id="E25_0" queueing_time="1.00" queueing_length="2.34" queueing_length_experimental="2.34"/>
            <lane id="E4_1" queueing_time="0.00" queueing_length="0.00" queueing_length_experimental="7.24"/>
            <lane id="E6_0" queueing_time="22.00" queueing_length="64.86" queueing_length_experimental="57.36"/>
        </lanes>
    </data>
    <data timestep="41.00">
        <lanes>
            <lane id=":J9_0_0" queueing_time="27.00" queueing_length="7.20" queueing_length_experimental="7.20"/>
            <lane id="E1_0" queueing_time="0.00" queueing_length="0.00" queueing_length_experimental="12.15"/>
            <lane id="E4_1" queueing_time="1.00" queueing_length="7.21" queueing_length_experimental="7.21"/>
            <lane id="E6_0" queueing_time="23.00" queueing_length="69.56" queueing_length_experimental="57.36"/>
        </lanes>
    </data>
    <data timestep="42.00">
        <lanes>
            <lane id=":J9_0_0" queueing_time="28.00" queueing_length="7.20" queueing_length_experimental="7.20"/>
            <lane id="E4_1" queueing_time="2.00" queueing_length="7.20" queueing_length_experimental="17.33"/>
            <lane id="E6_0" queueing_time="24.00" queueing_length="69.56" queueing_length_experimental="57.36"/>
        </lanes>
    </data>
    <data timestep="43.00">
        <lanes>
            <lane id=":J12_6_0" queueing_time="0.00" queueing_length="0.00" queueing_length_experimental="2.52"/>
            <lane id=":J9_0_0" queueing_time="29.00" queueing_length="7.20" queueing_length_experimental="7.20"/>
            <lane id="E1_0" queueing_time="0.00" queueing_length="0.00" queueing_length_experimental="16.13"/>
            <lane id="E4_1" queueing_time="3.00" queueing_length="7.20" queueing_length_experimental="16.90"/>
            <lane id="E6_0" queueing_time="25.00" queueing_length="69.56" queueing_length_experimental="57.36"/>
        </lanes>
    </data>
    <data timestep="44.00">
        <lanes>
            <lane id=":J12_6_0" queueing_time="0.00" queueing_length="0.00" queueing_length_experimental="2.36"/>
            <lane id=":J9_0_0" queueing_time="30.00" queueing_length="7.20" queueing_length_experimental="7.20"/>
            <lane id="E4_1" queueing_time="4.00" queueing_length="16.83" queueing_length_experimental="16.83"/>
            <lane id="E6_0" queueing_time="26.00" queueing_length="69.56" queueing_length_experimental="57.36"/>
        </lanes>
    </data>
    <data timestep="45.00">
        <lanes>
            <lane id=":J12_6_0" queueing_time="1.00" queueing_length="2.32" queueing_length_experimental="2.32"/>
            <lane id=":J9_0_0" queueing_time="31.00" queueing_length="7.20" queueing_length_experimental="7.20"/>
            <lane id="E4_1" queueing_time="5.00" queueing_length="16.80" queueing_length_experimental="16.80"/>
            <lane id="E6_0" queueing_time="27.00" queueing_length="69.56" queueing_length_experimental="57.36"/>
        </lanes>
    </data>
    <data timestep="46.00">
        <lanes>
            <lane id=":J12_6_0" queueing_time="2.00" queueing_length="2.31" queueing_length_experimental="2.31"/>
            <lane id=":J9_0_0" queueing_time="32.00" queueing_length="7.20" queueing_length_experimental="7.20"/>
            <lane id="E1_0" queueing_time="0.00" queueing_length="0.00" queueing_length_experimental="28.39"/>
            <lane id="E4_1" queueing_time="6.00" queueing_length="16.80" queueing_length_experimental="16.80"/>
            <lane id="E6_0" queueing_time="28.00" queueing_length="69.56" queueing_length_experimental="57.36"/>
        </lanes>
    </data>
    <data timestep="47.00">
        <lanes>
            <lane id=":J12_6_0" queueing_time="3.00" queueing_length="2.30" queueing_length_experimental="2.30"/>
            <lane id=":J6_4_0" queueing_time="0.00" queueing_length="0.00" queueing_length_experimental="5.52"/>
            <lane id=":J9_0_0" queueing_time="33.00" queueing_length="7.20" queueing_length_experimental="7.20"/>
            <lane id="E4_1" queueing_time="7.00" queueing_length="16.80" queueing_length_experimental="24.41"/>
            <lane id="E6_0" queueing_time="29.00" queueing_length="69.56" queueing_length_experimental="57.36"/>
        </lanes>
    </data>
    <data timestep="48.00">
        <lanes>
            <lane id=":J6_4_0" queueing_time="0.00" queueing_length="0.00" queueing_length_experimental="5.24"/>
            <lane id=":J9_0_0" queueing_time="34.00" queueing_length="7.20" queueing_length_experimental="7.20"/>
            <lane id="E4_1" queueing_time="8.00" queueing_length="24.32" queueing_length_experimental="24.32"/>
            <lane id="E6_0" queueing_time="30.00" queueing_length="74.26" queueing_length_experimental="57.36"/>
        </lanes>
    </data>
    <data timestep="49.00">
        <lanes>
            <lane id=":J6_4_0" queueing_time="0.00" queueing_length="0.00" queueing_length_experimental="5.14"/>
            <lane id=":J9_0_0" queueing_time="35.00" queueing_length="7.20" queueing_length_experimental="7.20"/>
            <lane id="E4_1" queueing_time="9.00" queueing_length="24.30" queueing_length_experimental="24.30"/>
            <lane id="E6_0" queueing_time="31.00" queueing_length="74.26" queueing_length_experimental="57.36"/>
        </lanes>
    </data>
    <data timestep="50.00">
        <lanes>
            <lane id=":J6_4_0" queueing_time="1.00" queueing_length="5.12" queueing_length_experimental="5.12"/>
            <lane id=":J9_0_0" queueing_time="36.00" queueing_length="7.20" queueing_length_experimental="7.20"/>
            <lane id="E4_1" queueing_time="10.00" queueing_length="24.30" queueing_length_experimental="24.30"/>
            <lane id="E6_0" queueing_time="32.00" queueing_length="74.26" queueing_length_experimental="57.36"/>
        </lanes>
    </data>
    <data timestep="51.00">
        <lanes>
            <lane id=":J6_4_0" queueing_time="2.00" queueing_length="5.10" queueing_length_experimental="5.10"/>
            <lane id=":J9_0_0" queueing_time="37.00" queueing_length="7.20" queueing_length_experimental="7.20"/>
            <lane id="E4_0" queueing_time="0.00" queueing_length="0.00" queueing_length_experimental="8.30"/>
            <lane id="E4_1" queueing_time="11.00" queueing_length="24.30" queueing_length_experimental="24.30"/>
            <lane id="E6_0" queueing_time="33.00" queueing_length="74.26" queueing_length_experimental="57.36"/>
        </lanes>
    </data>
    <data timestep="52.00">
        <lanes>
            <lane id=":J6_4_0" queueing_time="3.00" queueing_length="5.10" queueing_length_experimental="5.10"/>
            <lane id=":J9_0_0" queueing_time="38.00" queueing_length="7.20" queueing_length_experimental="7.20"/>
            <lane id="E4_0" queueing_time="1.00" queueing_length="8.30" queueing_length_experimental="8.30"/>
            <lane id="E4_1" queueing_time="12.00" queueing_length="24.30" queueing_length_experimental="24.30"/>
            <lane id="E6_0" queueing_time="34.00" queueing_length="74.26" queueing_length_experimental="57.36"/>
        </lanes>
    </data>
    <data timestep="53.00">
        <lanes>
            <lane id=":J6_4_0" queueing_time="4.00" queueing_length="5.10" queueing_length_experimental="5.10"/>
            <lane id=":J9_0_0" queueing_time="39.00" queueing_length="7.20" queueing_length_experimental="7.20"/>
            <lane id="E1_1" queueing_time="0.00" queueing_length="0.00" queueing_length_experimental="3.01"/>
            <lane id="E4_0" queueing_time="2.00" queueing_length="8.30" queueing_length_experimental="8.30"/>
            <lane id="E4_1" queueing_time="13.00" queueing_length="24.30" queueing_length_experimental="24.30"/>
            <lane id="E6_0" queueing_time="35.00" queueing_length="74.26" queueing_length_experimental="57.36"/>
        </lanes>
    </data>
    <data timestep="54.00">
        <lanes>
            <lane id=":J6_4_0" queueing_time="5.00" queueing_length="5.10" queueing_length_experimental="5.10"/>
            <lane id=":J9_0_0" queueing_time="40.00" queueing_length="7.20" queueing_length_experimental="7.20"/>
            <lane id="E0_0" queueing_time="1.00" queueing_length="71.38" queueing_length_experimental="0.00"/>
            <lane id="E1_1" queueing_time="0.00" queueing_length="0.00" queueing_length_experimental="8.75"/>
            <lane id="E4_0" queueing_time="3.00" queueing_length="8.30" queueing_length_experimental="15.82"/>
            <lane id="E4_1" queueing_time="14.00" queueing_length="24.30" queueing_length_experimental="24.30"/>
            <lane id="E6_0" queueing_time="36.00" queueing_length="74.26" queueing_length_experimental="57.36"/>
        </lanes>
    </data>
    <data timestep="55.00">
        <lanes>
            <lane id=":J6_4_0" queueing_time="6.00" queueing_length="5.10" queueing_length_experimental="5.10"/>
            <lane id=":J9_0_0" queueing_time="41.00" queueing_length="7.20" queueing_length_experimental="7.20"/>
            <lane id="E1_1" queueing_time="1.00" queueing_length="2.31" queueing_length_experimental="2.31"/>
            <lane id="E25_0" queueing_time="1.00" queueing_length="3.22" queueing_length_experimental="3.22"/>
            <lane id="E4_0" queueing_time="4.00" queueing_length="15.80" queueing_length_experimental="23.45"/>
            <lane id="E4_1" queueing_time="15.00" queueing_length="24.30" queueing_length_experimental="24.30"/>
            <lane id="E6_0" queueing_time="37.00" queueing_length="74.26" queueing_length_experimental="57.36"/>
            <lane id="E8_0" queueing_time="0.00" queueing_length="0.00" queueing_length_experimental="5.53"/>
        </lanes>
    </data>
    <data timestep="56.00">
        <lanes>
            <lane id=":J6_4_0" queueing_time="7.00" queueing_length="5.10" queueing_length_experimental="5.10"/>
            <lane id=":J9_0_0" queueing_time="42.00" queueing_length="7.20" queueing_length_experimental="7.20"/>
            <lane id="E1_1" queueing_time="2.00" queueing_length="7.05" queueing_length_experimental="7.05"/>
            <lane id="E4_0" queueing_time="5.00" queueing_length="15.79" queueing_length_experimental="23.31"/>
            <lane id="E4_1" queueing_time="16.00" queueing_length="24.30" queueing_length_experimental="29.14"/>
            <lane id="E6_0" queueing_time="38.00" queueing_length="74.26" queueing_length_experimental="57.36"/>
            <lane id="E8_0" queueing_time="0.00" queueing_length="0.00" queueing_length_experimental="5.11"/>
        </lanes>
    </data>
    <data timestep="57.00">
        <lanes>
            <lane id=":J6_4_0" queueing_time="8.00" queueing_length="5.10" queueing_length_experimental="5.10"/>
            <lane id=":J9_0_0" queueing_time="43.00" queueing_length="7.20" queueing_length_experimental="7.20"/>
            <lane id="E1_1" queueing_time="3.00" queueing_length="7.03" queueing_length_experimental="7.03"/>
            <lane id="E4_0" queueing_time="6.00" queueing_length="23.30" queueing_length_experimental="28.03"/>
            <lane id="E4_1" queueing_time="17.00" queueing_length="29.06" queueing_length_experimental="29.06"/>
            <lane id="E6_0" queueing_time="39.00" queueing_length="74.26" queueing_length_experimental="57.36"/>
            <lane id="E8_0" queueing_time="1.00" queueing_length="5.10" queueing_length_experimental="5.10"/>
        </lanes>
    </data>
    <data timestep="58.00">
        <lanes>
            <lane id=":J6_4_0" queueing_time="9.00" queueing_length="5.10" queueing_length_experimental="5.10"/>
            <lane id=":J9_0_0" queueing_time="44.00" queueing_length="7.20" queueing_length_experimental="7.20"/>
            <lane id="E1_0" queueing_time="3.00" queueing_length="7.01" queueing_length_experimental="7.01"/>
            <lane id="E1_1" queueing_time="0.00" queueing_length="0.00" queueing_length_experimental="14.66"/>
            <lane id="E4_0" queueing_time="7.00" queueing_length="28.01" queueing_length_experimental="28.01"/>
            <lane id="E4_1" queueing_time="18.00" queueing_length="29.01" queueing_length_experimental="29.01"/>
            <lane id="E6_0" queueing_time="40.00" queueing_length="74.26" queueing_length_experimental="57.36"/>
            <lane id="E8_0" queueing_time="2.00" queueing_length="5.10" queueing_length_experimental="5.10"/>
        </lanes>
    </data>
    <data timestep="59.00">
        <lanes>
            <lane id=":J6_4_0" queueing_time="10.00" queueing_length="5.10" queueing_length_experimental="5.10"/>
            <lane id=":J9_0_0" queueing_time="45.00" queueing_length="7.20" queueing_length_experimental="7.20"/>
            <lane id="E4_0" queueing_time="8.00" queueing_length="27.99" queueing_length_experimental="27.99"/>
            <lane id="E4_1" queueing_time="19.00" queueing_length="29.00" queueing_length_experimental="29.00"/>
            <lane id="E6_0" queueing_time="41.00" queueing_length="74.26" queueing_length_experimental="57.36"/>
            <lane id="E8_0" queueing_time="3.00" queueing_length="5.10" queueing_length_experimental="5.10"/>
        </lanes>
    </data>
    <data timestep="60.00">
        <lanes>
            <lane id=":J6_4_0" queueing_time="11.00" queueing_length="5.10" queueing_length_experimental="5.10"/>
            <lane id="E4_0" queueing_time="9.00" queueing_length="27.99" queueing_length_experimental="27.99"/>
            <lane id="E4_1" queueing_time="20.00" queueing_length="29.00" queueing_length_experimental="29.00"/>
            <lane id="E6_0" queueing_time="42.00" queueing_length="74.26" queueing_length_experimental="57.36"/>
            <lane id="E8_0" queueing_time="4.00" queueing_length="5.10" queueing_length_experimental="5.10"/>
        </lanes>
    </data>
    <data timestep="61.00">
        <lanes>
            <lane id=":J6_4_0" queueing_time="12.00" queueing_length="5.10" queueing_length_experimental="5.10"/>
            <lane id="E4_0" queueing_time="10.00" queueing_length="27.99" queueing_length_experimental="27.99"/>
            <lane id="E4_1" queueing_time="21.00" queueing_length="29.00" queueing_length_experimental="29.00"/>
            <lane id="E6_0" queueing_time="42.00" queueing_length="74.26" queueing_length_experimental="57.36"/>
            <lane id="E8_0" queueing_time="5.00" queueing_length="5.10" queueing_length_experimental="5.10"/>
        </lanes>
    </data>
    <data timestep="62.00">
        <lanes>
            <lane id=":J6_4_0" queueing_time="13.00" queueing_length="5.10" queueing_length_experimental="5.10"/>
            <lane id="E4_0" queueing_time="11.00" queueing_length="27.99" queueing_length_experimental="27.99"/>
            <lane id="E4_1" queueing_time="19.00" queueing_length="29.00" queueing_length_experimental="29.00"/>
            <lane id="E6_0" queueing_time="39.00" queueing_length="74.26" queueing_length_experimental="57.36"/>
            <lane id="E8_0" queueing_time="6.00" queueing_length="5.10" queueing_length_experimental="5.10"/>
        </lanes>
    </data>
    <data timestep="63.00">
        <lanes>
            <lane id=":J6_0_0" queueing_time="0.00" queueing_length="0.00" queueing_length_experimental="3.15"/>
            <lane id=":J6_4_0" queueing_time="14.00" queueing_length="5.10" queueing_length_experimental="5.10"/>
            <lane id="E4_0" queueing_time="12.00" queueing_length="27.99" queueing_length_experimental="27.99"/>
            <lane id="E4_1" queueing_time="16.00" queueing_length="29.00" queueing_length_experimental="29.00"/>