<?xml version="1.0" encoding="UTF-8"?>

<!-- generated on 2024-09-16 16:02:59 by Eclipse SUMO GUI Version 1.20.0
<configuration xmlns:xsi="http://www.w3.org/2001/XMLSchema-instance" xsi:noNamespaceSchemaLocation="http://sumo.dlr.de/xsd/sumoConfiguration.xsd">

    <input>
        <net-file value="H:\SUMO- Study Area\MainNetworkFile.net.xml"/>
        <route-files value="H:\SUMO- Study Area\Demand.rou.xml"/>
    </input>

    <output>
        <full-output value="H:\SUMO- Study Area\full-output.xml"/>
        <queue-output value="H:\SUMO- Study Area\queue-output.xml"/>
        <summary-output value="H:\SUMO- Study Area\summary-output.xml"/>
        <tripinfo-output value="H:\SUMO- Study Area\tripinfo-output.xml"/>
        <vehroute-output value="H:\SUMO- Study Area\vehroute-output.xml"/>
    </output>

    <time>
        <begin value="0"/>
        <end value="1000"/>
    </time>

    <processing>
        <time-to-teleport value="-1"/>
    </processing>

    <gui_only>
        <gui-settings-file value="H:\SUMO- Study Area\MapDecals.xml"/>
    </gui_only>

</configuration>
-->

<tripinfos xmlns:xsi="http://www.w3.org/2001/XMLSchema-instance" xsi:noNamespaceSchemaLocation="http://sumo.dlr.de/xsd/tripinfo_file.xsd">
    <tripinfo id="f_7.0" depart="2.00" departLane="E14_0" departPos="5.10" departSpeed="0.00" departDelay="2.00" arrival="19.00" arrivalLane="E15_0" arrivalPos="57.23" arrivalSpeed="12.42" duration="17.00" routeLength="138.10" waitingTime="0.00" waitingCount="0" stopTime="0.00" timeLoss="4.24" rerouteNo="0" devices="vehroute_f_7.0 tripinfo_f_7.0 routing_f_7.0" vType="car" speedFactor="0.90" vaporized=""/>
    <tripinfo id="bike_13.0" depart="0.00" departLane="E14_0" departPos="2.30" departSpeed="0.00" departDelay="0.00" arrival="20.00" arrivalLane="E18_0" arrivalPos="59.47" arrivalSpeed="10.12" duration="20.00" routeLength="180.90" waitingTime="0.00" waitingCount="0" stopTime="0.00" timeLoss="4.27" rerouteNo="1" devices="vehroute_bike_13.0 tripinfo_bike_13.0 routing_bike_13.0" vType="bike" speedFactor="0.89" vaporized=""/>
    <tripinfo id="3.0" depart="0.00" departLane="E4_0" departPos="7.20" departSpeed="0.00" departDelay="0.00" arrival="21.00" arrivalLane="E7_0" arrivalPos="63.23" arrivalSpeed="13.51" duration="21.00" routeLength="170.10" waitingTime="0.00" waitingCount="0" stopTime="0.00" timeLoss="8.70" rerouteNo="1" devices="vehroute_3.0 tripinfo_3.0 routing_3.0" vType="truck" speedFactor="1.01" vaporized=""/>
    <tripinfo id="bike_14.0" depart="0.00" departLane="E16_0" departPos="2.30" departSpeed="0.00" departDelay="0.00" arrival="22.00" arrivalLane="E18_1" arrivalPos="59.47" arrivalSpeed="11.10" duration="22.00" routeLength="155.88" waitingTime="0.00" waitingCount="0" stopTime="0.00" timeLoss="8.51" rerouteNo="1" devices="vehroute_bike_14.0 tripinfo_bike_14.0 routing_bike_14.0" vType="bike" speedFactor="0.94" vaporized=""/>
    <tripinfo id="f_8.0" depart="4.00" departLane="E14_0" departPos="5.10" departSpeed="0.00" departDelay="4.00" arrival="22.00" arrivalLane="E18_0" arrivalPos="59.47" arrivalSpeed="13.18" duration="18.00" routeLength="178.10" waitingTime="0.00" waitingCount="0" stopTime="0.00" timeLoss="4.71" rerouteNo="1" devices="vehroute_f_8.0 tripinfo_f_8.0 routing_f_8.0" vType="car" speedFactor="1.03" vaporized=""/>
    <tripinfo id="bike_6.0" depart="8.00" departLane="E4_0" departPos="2.30" departSpeed="0.00" departDelay="8.00" arrival="23.00" arrivalLane="E7_1" arrivalPos="63.23" arrivalSpeed="14.67" duration="15.00" routeLength="176.25" waitingTime="0.00" waitingCount="0" stopTime="0.00" timeLoss="3.58" rerouteNo="1" devices="vehroute_bike_6.0 tripinfo_bike_6.0 routing_bike_6.0" vType="bike" speedFactor="1.12" vaporized=""/>
    <tripinfo id="b-3.0" depart="5.00" departLane="E4_0" departPos="12.10" departSpeed="0.00" departDelay="5.00" arrival="28.00" arrivalLane="E7_0" arrivalPos="63.23" arrivalSpeed="13.71" duration="23.00" routeLength="165.20" waitingTime="0.00" waitingCount="0" stopTime="0.00" timeLoss="10.15" rerouteNo="1" devices="vehroute_b-3.0 tripinfo_b-3.0 routing_b-3.0" vType="bus" speedFactor="1.00" vaporized=""/>
    <tripinfo id="f_11.0" depart="3.00" departLane="E11_0" departPos="5.10" departSpeed="0.00" departDelay="3.00" arrival="28.00" arrivalLane="E18_1" arrivalPos="59.47" arrivalSpeed="11.79" duration="25.00" routeLength="227.71" waitingTime="0.00" waitingCount="0" stopTime="0.00" timeLoss="5.00" rerouteNo="1" devices="vehroute_f_11.0 tripinfo_f_11.0 routing_f_11.0" vType="car" speedFactor="0.89" vaporized=""/>
    <tripinfo id="f_10.0" depart="0.00" departLane="E11_0" departPos="5.10" departSpeed="0.00" departDelay="0.00" arrival="29.00" arrivalLane="E13_1" arrivalPos="111.03" arrivalSpeed="12.00" duration="29.00" routeLength="266.23" waitingTime="0.00" waitingCount="0" stopTime="0.00" timeLoss="6.39" rerouteNo="1" devices="vehroute_f_10.0 tripinfo_f_10.0 routing_f_10.0" vType="car" speedFactor="0.94" vaporized=""/>
    <tripinfo id="f_9.0" depart="2.00" departLane="E16_0" departPos="5.10" departSpeed="0.00" departDelay="2.00" arrival="31.00" arrivalLane="E18_1" arrivalPos="59.47" arrivalSpeed="12.60" duration="29.00" routeLength="153.08" waitingTime="3.00" waitingCount="2" stopTime="0.00" timeLoss="16.62" rerouteNo="1" devices="vehroute_f_9.0 tripinfo_f_9.0 routing_f_9.0" vType="car" speedFactor="0.96" vaporized=""/>
    <tripinfo id="b-2.0" depart="5.00" departLane="E6_0" departPos="12.10" departSpeed="0.00" departDelay="5.00" arrival="33.00" arrivalLane="E7_1" arrivalPos="63.23" arrivalSpeed="11.64" duration="28.00" routeLength="145.03" waitingTime="0.00" waitingCount="0" stopTime="0.00" timeLoss="16.47" rerouteNo="0" devices="vehroute_b-2.0 tripinfo_b-2.0 routing_b-2.0" vType="bus" speedFactor="1.00" vaporized=""/>
    <tripinfo id="t_15.0" depart="7.00" departLane="E14_0" departPos="7.20" departSpeed="0.00" departDelay="7.00" arrival="34.00" arrivalLane="E18_0" arrivalPos="59.47" arrivalSpeed="12.36" duration="27.00" routeLength="176.00" waitingTime="0.00" waitingCount="0" stopTime="0.00" timeLoss="13.57" rerouteNo="1" devices="vehroute_t_15.0 tripinfo_t_15.0 routing_t_15.0" vType="truck" speedFactor="1.04" vaporized=""/>
    <tripinfo id="bike_5.0" depart="7.00" departLane="E6_0" departPos="2.30" departSpeed="0.00" departDelay="7.00" arrival="36.00" arrivalLane="E7_1" arrivalPos="63.23" arrivalSpeed="11.94" duration="29.00" routeLength="154.83" waitingTime="0.00" waitingCount="0" stopTime="0.00" timeLoss="17.07" rerouteNo="0" devices="vehroute_bike_5.0 tripinfo_bike_5.0 routing_bike_5.0" vType="bike" speedFactor="1.05" vaporized=""/>
    <tripinfo id="f_13.0" depart="14.00" departLane="E8_0" departPos="5.10" departSpeed="0.00" departDelay="14.00" arrival="36.00" arrivalLane="E5_0" arrivalPos="76.12" arrivalSpeed="10.92" duration="22.00" routeLength="189.60" waitingTime="0.00" waitingCount="0" stopTime="0.00" timeLoss="5.30" rerouteNo="1" devices="vehroute_f_13.0 tripinfo_f_13.0 routing_f_13.0" vType="car" speedFactor="0.87" vaporized=""/>
    <tripinfo id="bike_12.0" depart="6.00" departLane="E8_0" departPos="2.30" departSpeed="0.00" departDelay="6.00" arrival="38.00" arrivalLane="E10_0" arrivalPos="28.51" arrivalSpeed="12.48" duration="32.00" routeLength="311.48" waitingTime="0.00" waitingCount="0" stopTime="0.00" timeLoss="9.04" rerouteNo="1" devices="vehroute_bike_12.0 tripinfo_bike_12.0 routing_bike_12.0" vType="bike" speedFactor="1.05" vaporized=""/>
    <tripinfo id="f_12.0" depart="11.00" departLane="E8_0" departPos="5.10" departSpeed="0.00" departDelay="11.00" arrival="38.00" arrivalLane="E27_0" arrivalPos="78.26" arrivalSpeed="11.12" duration="27.00" routeLength="187.80" waitingTime="0.00" waitingCount="0" stopTime="0.00" timeLoss="9.43" rerouteNo="1" devices="vehroute_f_12.0 tripinfo_f_12.0 routing_f_12.0" vType="car" speedFactor="0.83" vaporized=""/>
    <tripinfo id="f_20.0" depart="19.00" departLane="E6_0" departPos="5.10" departSpeed="0.00" departDelay="19.00" arrival="38.00" arrivalLane="E7_1" arrivalPos="63.23" arrivalSpeed="13.20" duration="19.00" routeLength="152.03" waitingTime="0.00" waitingCount="0" stopTime="0.00" timeLoss="6.67" rerouteNo="0" devices="vehroute_f_20.0 tripinfo_f_20.0 routing_f_20.0" vType="car" speedFactor="1.01" vaporized=""/>
    <tripinfo id="f_14.0" depart="17.00" departLane="E8_0" departPos="5.10" departSpeed="0.00" departDelay="17.00" arrival="43.00" arrivalLane="E7_0" arrivalPos="63.23" arrivalSpeed="11.76" duration="26.00" routeLength="188.40" waitingTime="0.00" waitingCount="0" stopTime="0.00" timeLoss="8.57" rerouteNo="1" devices="vehroute_f_14.0 tripinfo_f_14.0 routing_f_14.0" vType="car" speedFactor="0.92" vaporized=""/>
    <tripinfo id="f_1.0" depart="8.00" departLane="E8_0" departPos="5.10" departSpeed="0.00" departDelay="8.00" arrival="46.00" arrivalLane="E10_0" arrivalPos="28.51" arrivalSpeed="11.03" duration="38.00" routeLength="308.68" waitingTime="0.00" waitingCount="0" stopTime="0.00" timeLoss="12.95" rerouteNo="1" devices="vehroute_f_1.0 tripinfo_f_1.0 routing_f_1.0" vType="car" speedFactor="0.94" vaporized=""/>
    <tripinfo id="2.0" depart="0.00" departLane="E8_0" departPos="7.20" departSpeed="0.00" departDelay="0.00" arrival="47.00" arrivalLane="E18_0" arrivalPos="59.47" arrivalSpeed="12.95" duration="47.00" routeLength="481.25" waitingTime="0.00" waitingCount="0" stopTime="0.00" timeLoss="10.61" rerouteNo="1" devices="vehroute_2.0 tripinfo_2.0 routing_2.0" vType="truck" speedFactor="0.97" vaporized=""/>
    <tripinfo id="bike_5.1" depart="31.00" departLane="E6_0" departPos="2.30" departSpeed="0.00" departDelay="7.00" arrival="47.00" arrivalLane="E7_1" arrivalPos="63.23" arrivalSpeed="13.04" duration="16.00" routeLength="154.83" waitingTime="0.00" waitingCount="0" stopTime="0.00" timeLoss="3.53" rerouteNo="0" devices="vehroute_bike_5.1 tripinfo_bike_5.1 routing_bike_5.1" vType="bike" speedFactor="0.99" vaporized=""/>
    <tripinfo id="bike_1.0" depart="4.00" departLane="E0_0" departPos="2.30" departSpeed="0.00" departDelay="4.00" arrival="50.00" arrivalLane="E7_0" arrivalPos="63.23" arrivalSpeed="13.73" duration="46.00" routeLength="521.27" waitingTime="1.00" waitingCount="1" stopTime="0.00" timeLoss="9.97" rerouteNo="1" devices="vehroute_bike_1.0 tripinfo_bike_1.0 routing_bike_1.0" vType="bike" speedFactor="1.08" vaporized=""/>
    <tripinfo id="t_7.0" depart="19.00" departLane="E4_0" departPos="7.20" departSpeed="0.00" departDelay="19.00" arrival="50.00" arrivalLane="E5_0" arrivalPos="76.12" arrivalSpeed="13.66" duration="31.00" routeLength="166.28" waitingTime="3.00" waitingCount="1" stopTime="0.00" timeLoss="19.17" rerouteNo="0" devices="vehroute_t_7.0 tripinfo_t_7.0 routing_t_7.0" vType="truck" speedFactor="1.08" vaporized=""/>
    <tripinfo id="bike_10.0" depart="2.00" departLane="E8_0" departPos="2.30" departSpeed="0.00" departDelay="2.00" arrival="57.00" arrivalLane="E18_0" arrivalPos="59.47" arrivalSpeed="12.90" duration="55.00" routeLength="486.15" waitingTime="2.00" waitingCount="1" stopTime="0.00" timeLoss="20.38" rerouteNo="1" devices="vehroute_bike_10.0 tripinfo_bike_10.0 routing_bike_10.0" vType="bike" speedFactor="1.03" vaporized=""/>
    <tripinfo id="bike_2.0" depart="5.00" departLane="E0_0" departPos="2.30" departSpeed="0.00" departDelay="5.00" arrival="57.00" arrivalLane="E5_1" arrivalPos="76.12" arrivalSpeed="11.11" duration="52.00" routeLength="522.72" waitingTime="0.00" waitingCount="0" stopTime="0.00" timeLoss="7.74" rerouteNo="1" devices="vehroute_bike_2.0 tripinfo_bike_2.0 routing_bike_2.0" vType="bike" speedFactor="0.86" vaporized=""/>
    <tripinfo id="f_7.1" depart="40.00" departLane="E14_0" departPos="5.10" departSpeed="0.00" departDelay="0.00" arrival="57.00" arrivalLane="E15_0" arrivalPos="57.23" arrivalSpeed="13.15" duration="17.00" routeLength="138.10" waitingTime="0.00" waitingCount="0" stopTime="0.00" timeLoss="5.42" rerouteNo="0" devices="vehroute_f_7.1 tripinfo_f_7.1 routing_f_7.1" vType="car" speedFactor="0.98" vaporized=""/>
    <tripinfo id="b-1.0" depart="0.00" departLane="E0_0" departPos="12.10" departSpeed="0.00" departDelay="0.00" arrival="59.00" arrivalLane="E7_0" arrivalPos="63.23" arrivalSpeed="13.63" duration="59.00" routeLength="511.47" waitingTime="0.00" waitingCount="0" stopTime="0.00" timeLoss="20.84" rerouteNo="1" devices="vehroute_b-1.0 tripinfo_b-1.0 routing_b-1.0" vType="bus" speedFactor="1.00" vaporized=""/>
    <tripinfo id="bike_3.0" depart="6.00" departLane="E0_0" departPos="2.30" departSpeed="0.00" departDelay="6.00" arrival="59.00" arrivalLane="E27_1" arrivalPos="78.26" arrivalSpeed="14.32" duration="53.00" routeLength="510.67" waitingTime="1.00" waitingCount="1" stopTime="0.00" timeLoss="18.03" rerouteNo="1" devices="vehroute_bike_3.0 tripinfo_bike_3.0 routing_bike_3.0" vType="bike" speedFactor="1.09" vaporized=""/>
    <tripinfo id="f_0.0" depart="15.00" departLane="E0_0" departPos="5.10" departSpeed="20.00" departDelay="15.00" arrival="59.00" arrivalLane="E5_1" arrivalPos="76.12" arrivalSpeed="17.99" duration="44.00" routeLength="519.92" waitingTime="0.00" waitingCount="0" stopTime="0.00" timeLoss="17.81" rerouteNo="1" devices="vehroute_f_0.0 tripinfo_f_0.0 routing_f_0.0" vType="car" speedFactor="1.44" vaporized=""/>
    <tripinfo id="f_101.0" depart="16.00" departLane="E0_0" departPos="2.30" departSpeed="0.00" departDelay="16.00" arrival="63.00" arrivalLane="E7_0" arrivalPos="63.23" arrivalSpeed="13.74" duration="47.00" routeLength="521.27" waitingTime="1.00" waitingCount="1" stopTime="0.00" timeLoss="14.07" rerouteNo="1" devices="vehroute_f_101.0 tripinfo_f_101.0 routing_f_101.0" vType="bike" speedFactor="1.16" vaporized=""/>
    <tripinfo id="f_1.1" depart="30.00" departLane="E8_0" departPos="5.10" departSpeed="0.00" departDelay="0.00" arrival="63.00" arrivalLane="E10_0" arrivalPos="28.51" arrivalSpeed="11.42" duration="33.00" routeLength="308.68" waitingTime="0.00" waitingCount="0" stopTime="0.00" timeLoss="7.56" rerouteNo="1" devices="vehroute_f_1.1 tripinfo_f_1.1 routing_f_1.1" vType="car" speedFactor="0.91" vaporized=""/>
    <tripinfo id="f_17.0" depart="21.00" departLane="E8_0" departPos="5.10" departSpeed="0.00" departDelay="21.00" arrival="64.00" arrivalLane="E18_0" arrivalPos="59.47" arrivalSpeed="15.22" duration="43.00" routeLength="483.35" waitingTime="0.00" waitingCount="0" stopTime="0.00" timeLoss="11.72" rerouteNo="1" devices="vehroute_f_17.0 tripinfo_f_17.0 routing_f_17.0" vType="car" speedFactor="1.13" vaporized=""/>
    <tripinfo id="bike_11.0" depart="4.00" departLane="E8_0" departPos="2.30" departSpeed="0.00" departDelay="4.00" arrival="66.00" arrivalLane="E13_1" arrivalPos="111.03" arrivalSpeed="9.68" duration="62.00" routeLength="526.38" waitingTime="1.00" waitingCount="1" stopTime="0.00" timeLoss="15.27" rerouteNo="1" devices="vehroute_bike_11.0 tripinfo_bike_11.0 routing_bike_11.0" vType="bike" speedFactor="0.83" vaporized=""/>
    <tripinfo id="f_12.1" depart="45.00" departLane="E8_0" departPos="5.10" departSpeed="0.00" departDelay="0.00" arrival="66.00" arrivalLane="E27_0" arrivalPos="78.26" arrivalSpeed="14.03" duration="21.00" routeLength="187.80" waitingTime="0.00" waitingCount="0" stopTime="0.00" timeLoss="6.45" rerouteNo="1" devices="vehroute_f_12.1 tripinfo_f_12.1 routing_f_12.1" vType="car" speedFactor="1.03" vaporized=""/>
    <tripinfo id="f_102.0" depart="18.00" departLane="E0_0" departPos="2.30" departSpeed="0.00" departDelay="18.00" arrival="68.00" arrivalLane="E5_1" arrivalPos="76.12" arrivalSpeed="11.76" duration="50.00" routeLength="522.72" waitingTime="3.00" waitingCount="1" stopTime="0.00" timeLoss="12.85" rerouteNo="1" devices="vehroute_f_102.0 tripinfo_f_102.0 routing_f_102.0" vType="bike" speedFactor="1.02" vaporized=""/>
    <tripinfo id="f_16.0" depart="20.00" departLane="E8_0" departPos="5.10" departSpeed="0.00" departDelay="20.00" arrival="68.00" arrivalLane="E13_1" arrivalPos="111.03" arrivalSpeed="12.75" duration="48.00" routeLength="523.58" waitingTime="0.00" waitingCount="0" stopTime="0.00" timeLoss="7.03" rerouteNo="1" devices="vehroute_f_16.0 tripinfo_f_16.0 routing_f_16.0" vType="car" speedFactor="0.95" vaporized=""/>
    <tripinfo id="f_2.0" depart="34.00" departLane="E0_0" departPos="5.10" departSpeed="30.00" departDelay="34.00" arrival="71.00" arrivalLane="E27_1" arrivalPos="78.26" arrivalSpeed="20.22" duration="37.00" routeLength="507.87" waitingTime="0.00" waitingCount="0" stopTime="0.00" timeLoss="18.82" rerouteNo="1" devices="vehroute_f_2.0 tripinfo_f_2.0 routing_f_2.0" vType="car" speedFactor="2.16" vaporized=""/>
    <tripinfo id="f_103.0" depart="20.00" departLane="E0_0" departPos="2.30" departSpeed="0.00" departDelay="20.00" arrival="72.00" arrivalLane="E27_0" arrivalPos="78.26" arrivalSpeed="12.22" duration="52.00" routeLength="515.54" waitingTime="3.00" waitingCount="1" stopTime="0.00" timeLoss="13.28" rerouteNo="1" devices="vehroute_f_103.0 tripinfo_f_103.0 routing_f_103.0" vType="bike" speedFactor="1.01" vaporized=""/>
    <tripinfo id="bike_10.1" depart="23.00" departLane="E8_0" departPos="2.30" departSpeed="0.00" departDelay="8.60" arrival="73.00" arrivalLane="E18_0" arrivalPos="59.47" arrivalSpeed="11.88" duration="50.00" routeLength="486.15" waitingTime="0.00" waitingCount="0" stopTime="0.00" timeLoss="10.12" rerouteNo="1" devices="vehroute_bike_10.1 tripinfo_bike_10.1 routing_bike_10.1" vType="bike" speedFactor="0.90" vaporized=""/>
    <tripinfo id="t_8.0" depart="24.00" departLane="E4_0" departPos="7.20" departSpeed="0.00" departDelay="24.00" arrival="75.00" arrivalLane="E7_1" arrivalPos="63.23" arrivalSpeed="13.69" duration="51.00" routeLength="171.35" waitingTime="21.00" waitingCount="1" stopTime="0.00" timeLoss="38.30" rerouteNo="1" devices="vehroute_t_8.0 tripinfo_t_8.0 routing_t_8.0" vType="truck" speedFactor="1.01" vaporized=""/>
    <tripinfo id="bike_10.2" depart="29.00" departLane="E8_0" departPos="2.30" departSpeed="0.00" departDelay="0.20" arrival="76.00" arrivalLane="E18_0" arrivalPos="59.47" arrivalSpeed="12.16" duration="47.00" routeLength="486.15" waitingTime="0.00" waitingCount="0" stopTime="0.00" timeLoss="6.80" rerouteNo="1" devices="vehroute_bike_10.2 tripinfo_bike_10.2 routing_bike_10.2" vType="bike" speedFactor="0.88" vaporized=""/>
    <tripinfo id="t_11.0" depart="14.00" departLane="E4_0" departPos="7.20" departSpeed="0.00" departDelay="14.00" arrival="79.00" arrivalLane="E18_0" arrivalPos="59.47" arrivalSpeed="14.07" duration="65.00" routeLength="548.90" waitingTime="5.00" waitingCount="1" stopTime="0.00" timeLoss="25.40" rerouteNo="1" devices="vehroute_t_11.0 tripinfo_t_11.0 routing_t_11.0" vType="truck" speedFactor="1.02" vaporized=""/>
    <tripinfo id="f_24.0" depart="35.00" departLane="E4_0" departPos="5.10" departSpeed="0.00" departDelay="20.00" arrival="80.00" arrivalLane="E5_0" arrivalPos="76.12" arrivalSpeed="15.35" duration="45.00" routeLength="168.38" waitingTime="21.00" waitingCount="1" stopTime="0.00" timeLoss="33.15" rerouteNo="0" devices="vehroute_f_24.0 tripinfo_f_24.0 routing_f_24.0" vType="car" speedFactor="1.14" vaporized=""/>
    <tripinfo id="t_10.0" depart="9.00" departLane="E4_0" departPos="7.20" departSpeed="0.00" departDelay="9.00" arrival="84.00" arrivalLane="E13_1" arrivalPos="111.03" arrivalSpeed="14.13" duration="75.00" routeLength="592.20" waitingTime="8.00" waitingCount="1" stopTime="0.00" timeLoss="32.49" rerouteNo="1" devices="vehroute_t_10.0 tripinfo_t_10.0 routing_t_10.0" vType="truck" speedFactor="1.02" vaporized=""/>
    <tripinfo id="bike_10.3" depart="44.00" departLane="E8_0" departPos="2.30" departSpeed="0.00" departDelay="0.80" arrival="86.00" arrivalLane="E18_0" arrivalPos="59.47" arrivalSpeed="12.28" duration="42.00" routeLength="486.15" waitingTime="0.00" waitingCount="0" stopTime="0.00" timeLoss="6.84" rerouteNo="1" devices="vehroute_bike_10.3 tripinfo_bike_10.3 routing_bike_10.3" vType="bike" speedFactor="1.01" vaporized=""/>
    <tripinfo id="f_28.0" depart="32.00" departLane="E4_0" departPos="5.10" departSpeed="0.00" departDelay="25.00" arrival="87.00" arrivalLane="E13_1" arrivalPos="111.03" arrivalSpeed="13.82" duration="55.00" routeLength="591.23" waitingTime="0.00" waitingCount="0" stopTime="0.00" timeLoss="11.33" rerouteNo="1" devices="vehroute_f_28.0 tripinfo_f_28.0 routing_f_28.0" vType="car" speedFactor="1.00" vaporized=""/>
    <tripinfo id="f_25.0" depart="46.00" departLane="E4_0" departPos="5.10" departSpeed="0.00" departDelay="26.00" arrival="87.00" arrivalLane="E7_0" arrivalPos="63.23" arrivalSpeed="12.81" duration="41.00" routeLength="172.20" waitingTime="17.00" waitingCount="1" stopTime="0.00" timeLoss="28.22" rerouteNo="1" devices="vehroute_f_25.0 tripinfo_f_25.0 routing_f_25.0" vType="car" speedFactor="1.02" vaporized=""/>
    <tripinfo id="bike_13.1" depart="72.00" departLane="E14_0" departPos="2.30" departSpeed="0.00" departDelay="0.00" arrival="88.00" arrivalLane="E18_0" arrivalPos="59.47" arrivalSpeed="15.10" duration="16.00" routeLength="180.90" waitingTime="0.00" waitingCount="0" stopTime="0.00" timeLoss="3.61" rerouteNo="1" devices="vehroute_bike_13.1 tripinfo_bike_13.1 routing_bike_13.1" vType="bike" speedFactor="1.10" vaporized=""/>
    <tripinfo id="bike_11.1" depart="36.00" departLane="E8_0" departPos="2.30" departSpeed="0.00" departDelay="0.00" arrival="90.00" arrivalLane="E13_1" arrivalPos="111.03" arrivalSpeed="11.30" duration="54.00" routeLength="526.38" waitingTime="3.00" waitingCount="1" stopTime="0.00" timeLoss="15.60" rerouteNo="1" devices="vehroute_bike_11.1 tripinfo_bike_11.1 routing_bike_11.1" vType="bike" speedFactor="1.02" vaporized=""/>
    <tripinfo id="bike_14.1" depart="72.00" departLane="E16_0" departPos="2.30" departSpeed="0.00" departDelay="0.00" arrival="90.00" arrivalLane="E18_1" arrivalPos="59.47" arrivalSpeed="12.05" duration="18.00" routeLength="155.88" waitingTime="0.00" waitingCount="0" stopTime="0.00" timeLoss="6.35" rerouteNo="1" devices="vehroute_bike_14.1 tripinfo_bike_14.1 routing_bike_14.1" vType="bike" speedFactor="1.06" vaporized=""/>
    <tripinfo id="bike_6.1" depart="48.00" departLane="E4_0" departPos="2.30" departSpeed="0.00" departDelay="24.00" arrival="92.00" arrivalLane="E7_1" arrivalPos="63.23" arrivalSpeed="10.09" duration="44.00" routeLength="176.25" waitingTime="10.00" waitingCount="3" stopTime="0.00" timeLoss="30.25" rerouteNo="1" devices="vehroute_bike_6.1 tripinfo_bike_6.1 routing_bike_6.1" vType="bike" speedFactor="0.94" vaporized=""/>
    <tripinfo id="f_8.1" depart="74.00" departLane="E14_0" departPos="5.10" departSpeed="0.00" departDelay="2.00" arrival="92.00" arrivalLane="E18_0" arrivalPos="59.47" arrivalSpeed="16.06" duration="18.00" routeLength="178.10" waitingTime="0.00" waitingCount="0" stopTime="0.00" timeLoss="6.51" rerouteNo="1" devices="vehroute_f_8.1 tripinfo_f_8.1 routing_f_8.1" vType="car" speedFactor="1.18" vaporized=""/>
    <tripinfo id="t_1.0" depart="40.00" departLane="E0_0" departPos="7.20" departSpeed="0.00" departDelay="40.00" arrival="93.00" arrivalLane="E27_1" arrivalPos="78.26" arrivalSpeed="12.63" duration="53.00" routeLength="505.77" waitingTime="0.00" waitingCount="0" stopTime="0.00" timeLoss="17.22" rerouteNo="1" devices="vehroute_t_1.0 tripinfo_t_1.0 routing_t_1.0" vType="truck" speedFactor="1.05" vaporized=""/>
    <tripinfo id="bike_6.2" depart="50.00" departLane="E4_0" departPos="2.30" departSpeed="0.00" departDelay="2.00" arrival="94.00" arrivalLane="E7_1" arrivalPos="63.23" arrivalSpeed="14.36" duration="44.00" routeLength="176.25" waitingTime="13.00" waitingCount="2" stopTime="0.00" timeLoss="32.20" rerouteNo="1" devices="vehroute_bike_6.2 tripinfo_bike_6.2 routing_bike_6.2" vType="bike" speedFactor="1.15" vaporized=""/>
    <tripinfo id="bike_4.0" depart="7.00" departLane="E0_0" departPos="2.30" departSpeed="0.00" departDelay="7.00" arrival="95.00" arrivalLane="E13_1" arrivalPos="111.03" arrivalSpeed="12.17" duration="88.00" routeLength="940.30" waitingTime="0.00" waitingCount="0" stopTime="0.00" timeLoss="20.88" rerouteNo="1" devices="vehroute_bike_4.0 tripinfo_bike_4.0 routing_bike_4.0" vType="bike" speedFactor="1.03" vaporized=""/>
    <tripinfo id="f_1.2" depart="60.00" departLane="E8_0" departPos="5.10" departSpeed="0.00" departDelay="0.00" arrival="95.00" arrivalLane="E10_0" arrivalPos="28.51" arrivalSpeed="11.71" duration="35.00" routeLength="308.68" waitingTime="0.00" waitingCount="0" stopTime="0.00" timeLoss="12.46" rerouteNo="1" devices="vehroute_f_1.2 tripinfo_f_1.2 routing_f_1.2" vType="car" speedFactor="1.02" vaporized=""/>
    <tripinfo id="3.1" depart="72.00" departLane="E4_0" departPos="7.20" departSpeed="0.00" departDelay="0.00" arrival="96.00" arrivalLane="E7_0" arrivalPos="63.23" arrivalSpeed="14.01" duration="24.00" routeLength="170.10" waitingTime="0.00" waitingCount="0" stopTime="0.00" timeLoss="11.69" rerouteNo="1" devices="vehroute_3.1 tripinfo_3.1 routing_3.1" vType="truck" speedFactor="1.05" vaporized=""/>
    <tripinfo id="bike_6.3" depart="75.00" departLane="E4_0" departPos="2.30" departSpeed="0.00" departDelay="3.00" arrival="96.00" arrivalLane="E7_1" arrivalPos="63.23" arrivalSpeed="9.58" duration="21.00" routeLength="176.25" waitingTime="0.00" waitingCount="0" stopTime="0.00" timeLoss="6.51" rerouteNo="1" devices="vehroute_bike_6.3 tripinfo_bike_6.3 routing_bike_6.3" vType="bike" speedFactor="0.89" vaporized=""/>
    <tripinfo id="f_9.1" depart="74.00" departLane="E16_0" departPos="5.10" departSpeed="0.00" departDelay="2.00" arrival="96.00" arrivalLane="E18_1" arrivalPos="59.47" arrivalSpeed="13.10" duration="22.00" routeLength="153.08" waitingTime="0.00" waitingCount="0" stopTime="0.00" timeLoss="9.38" rerouteNo="1" devices="vehroute_f_9.1 tripinfo_f_9.1 routing_f_9.1" vType="car" speedFactor="1.00" vaporized=""/>
    <tripinfo id="f_7.2" depart="80.00" departLane="E14_0" departPos="5.10" departSpeed="0.00" departDelay="0.00" arrival="97.00" arrivalLane="E15_0" arrivalPos="57.23" arrivalSpeed="14.01" duration="17.00" routeLength="138.10" waitingTime="0.00" waitingCount="0" stopTime="0.00" timeLoss="6.46" rerouteNo="0" devices="vehroute_f_7.2 tripinfo_f_7.2 routing_f_7.2" vType="car" speedFactor="1.06" vaporized=""/>
    <tripinfo id="bike_5.2" depart="80.00" departLane="E6_0" departPos="2.30" departSpeed="0.00" departDelay="32.00" arrival="98.00" arrivalLane="E7_1" arrivalPos="63.23" arrivalSpeed="13.00" duration="18.00" routeLength="154.83" waitingTime="0.00" waitingCount="0" stopTime="0.00" timeLoss="5.15" rerouteNo="0" devices="vehroute_bike_5.2 tripinfo_bike_5.2 routing_bike_5.2" vType="bike" speedFactor="0.97" vaporized=""/>
    <tripinfo id="f_4.0" depart="35.00" departLane="E0_0" departPos="5.10" departSpeed="5.00" departDelay="35.00" arrival="99.00" arrivalLane="E10_0" arrivalPos="28.51" arrivalSpeed="10.52" duration="64.00" routeLength="722.60" waitingTime="0.00" waitingCount="0" stopTime="0.00" timeLoss="8.78" rerouteNo="1" devices="vehroute_f_4.0 tripinfo_f_4.0 routing_f_4.0" vType="car" speedFactor="0.97" vaporized=""/>
    <tripinfo id="f_10.1" depart="72.00" departLane="E11_0" departPos="5.10" departSpeed="0.00" departDelay="0.00" arrival="99.00" arrivalLane="E13_1" arrivalPos="111.03" arrivalSpeed="12.99" duration="27.00" routeLength="266.23" waitingTime="0.00" waitingCount="0" stopTime="0.00" timeLoss="6.87" rerouteNo="1" devices="vehroute_f_10.1 tripinfo_f_10.1 routing_f_10.1" vType="car" speedFactor="1.01" vaporized=""/>
    <tripinfo id="1.0" depart="0.00" departLane="E6_0" departPos="7.20" departSpeed="0.00" departDelay="0.00" arrival="100.00" arrivalLane="E18_0" arrivalPos="59.47" arrivalSpeed="14.13" duration="100.00" routeLength="534.43" waitingTime="45.00" waitingCount="1" stopTime="0.00" timeLoss="61.65" rerouteNo="1" devices="vehroute_1.0 tripinfo_1.0 routing_1.0" vType="truck" speedFactor="1.03" vaporized=""/>
    <tripinfo id="t_9.0" depart="29.00" departLane="E4_0" departPos="7.20" departSpeed="0.00" departDelay="29.00" arrival="100.00" arrivalLane="E27_0" arrivalPos="78.26" arrivalSpeed="14.52" duration="71.00" routeLength="253.44" waitingTime="24.00" waitingCount="2" stopTime="0.00" timeLoss="51.93" rerouteNo="1" devices="vehroute_t_9.0 tripinfo_t_9.0 routing_t_9.0" vType="truck" speedFactor="1.05" vaporized=""/>
    <tripinfo id="f_11.1" depart="75.00" departLane="E11_0" departPos="5.10" departSpeed="0.00" departDelay="3.00" arrival="100.00" arrivalLane="E18_1" arrivalPos="59.47" arrivalSpeed="11.00" duration="25.00" routeLength="227.71" waitingTime="0.00" waitingCount="0" stopTime="0.00" timeLoss="5.31" rerouteNo="1" devices="vehroute_f_11.1 tripinfo_f_11.1 routing_f_11.1" vType="car" speedFactor="0.87" vaporized=""/>
    <tripinfo id="f_27.0" depart="40.00" departLane="E4_0" departPos="5.10" departSpeed="0.00" departDelay="25.00" arrival="101.00" arrivalLane="E10_0" arrivalPos="28.51" arrivalSpeed="11.74" duration="61.00" routeLength="376.33" waitingTime="20.00" waitingCount="1" stopTime="0.00" timeLoss="32.52" rerouteNo="1" devices="vehroute_f_27.0 tripinfo_f_27.0 routing_f_27.0" vType="car" speedFactor="0.97" vaporized=""/>
    <tripinfo id="f_26.0" depart="38.00" departLane="E4_0" departPos="5.10" departSpeed="0.00" departDelay="23.00" arrival="103.00" arrivalLane="E27_0" arrivalPos="78.26" arrivalSpeed="13.26" duration="65.00" routeLength="255.54" waitingTime="19.00" waitingCount="3" stopTime="0.00" timeLoss="45.28" rerouteNo="1" devices="vehroute_f_26.0 tripinfo_f_26.0 routing_f_26.0" vType="car" speedFactor="1.02" vaporized=""/>