<?xml version="1.0" encoding="UTF-8"?>

<!-- generated on 2024-09-16 16:02:59 by Eclipse SUMO GUI Version 1.20.0
<configuration xmlns:xsi="http://www.w3.org/2001/XMLSchema-instance" xsi:noNamespaceSchemaLocation="http://sumo.dlr.de/xsd/sumoConfiguration.xsd">

    <input>
        <net-file value="H:\SUMO- Study Area\MainNetworkFile.net.xml"/>
        <route-files value="H:\SUMO- Study Area\Demand.rou.xml"/>
    </input>

    <output>
        <full-output value="H:\SUMO- Study Area\full-output.xml"/>
        <queue-output value="H:\SUMO- Study Area\queue-output.xml"/>
        <summary-output value="H:\SUMO- Study Area\summary-output.xml"/>
        <tripinfo-output value="H:\SUMO- Study Area\tripinfo-output.xml"/>
        <vehroute-output value="H:\SUMO- Study Area\vehroute-output.xml"/>
    </output>

    <time>
        <begin value="0"/>
        <end value="1000"/>
    </time>

    <processing>
        <time-to-teleport value="-1"/>
    </processing>

    <gui_only>
        <gui-settings-file value="H:\SUMO- Study Area\MapDecals.xml"/>
    </gui_only>

</configuration>
-->

<routes xmlns:xsi="http://www.w3.org/2001/XMLSchema-instance" xsi:noNamespaceSchemaLocation="http://sumo.dlr.de/xsd/routes_file.xsd">
    <vehicle id="f_7.0" type="car" depart="2.00" color="red" arrival="19.00">
        <route edges="E14 E15"/>
    </vehicle>

    <vehicle id="bike_13.0" type="bike" depart="0.00" arrival="20.00">
        <route edges="E14 E21 E17 E18"/>
    </vehicle>

    <vehicle id="3.0" type="truck" depart="0.00" color="blue" arrival="21.00">
        <route edges="E4 E22 E7"/>
    </vehicle>

    <vehicle id="bike_14.0" type="bike" depart="0.00" arrival="22.00">
        <route edges="E16 E17 E18"/>
    </vehicle>

    <vehicle id="f_8.0" type="car" depart="4.00" color="red" arrival="22.00">
        <route edges="E14 E21 E17 E18"/>
    </vehicle>

    <vehicle id="bike_6.0" type="bike" depart="8.00" arrival="23.00">
        <route edges="E4 E22 E7"/>
    </vehicle>

    <vehicle id="b-3.0" type="bus" depart="5.00" arrival="28.00">
        <route edges="E4 E22 E7"/>
    </vehicle>

    <vehicle id="f_11.0" type="car" depart="3.00" color="red" arrival="28.00">
        <route edges="E11 E12 E20 E18"/>
    </vehicle>

    <vehicle id="f_10.0" type="car" depart="0.00" color="red" arrival="29.00">
        <route edges="E11 E12 E13"/>
    </vehicle>

    <vehicle id="f_9.0" type="car" depart="2.00" color="red" arrival="31.00">
        <route edges="E16 E17 E18"/>
    </vehicle>

    <vehicle id="b-2.0" type="bus" depart="5.00" arrival="33.00">
        <route edges="E6 E7"/>
    </vehicle>

    <vehicle id="t_15.0" type="truck" depart="7.00" color="blue" arrival="34.00">
        <route edges="E14 E21 E17 E18"/>
    </vehicle>

    <vehicle id="bike_5.0" type="bike" depart="7.00" arrival="36.00">
        <route edges="E6 E7"/>
    </vehicle>

    <vehicle id="f_13.0" type="car" depart="14.00" color="red" arrival="36.00">
        <route edges="E8 E24 E25 E5"/>
    </vehicle>

    <vehicle id="bike_12.0" type="bike" depart="6.00" arrival="38.00">
        <route edges="E8 E9 E10"/>
    </vehicle>

    <vehicle id="f_12.0" type="car" depart="11.00" color="red" arrival="38.00">
        <route edges="E8 E24 E26 E27"/>
    </vehicle>

    <vehicle id="f_20.0" type="car" depart="19.00" color="red" arrival="38.00">
        <route edges="E6 E7"/>
    </vehicle>

    <vehicle id="f_14.0" type="car" depart="17.00" color="red" arrival="43.00">
        <route edges="E8 E24 E25 E22 E7"/>
    </vehicle>

    <vehicle id="f_1.0" type="car" depart="8.00" color="red" arrival="46.00">
        <route edges="E8 E9 E10"/>
    </vehicle>

    <vehicle id="2.0" type="truck" depart="0.00" color="blue" arrival="47.00">
        <route edges="E8 E9 E19 E12 E20 E18"/>
    </vehicle>

    <vehicle id="bike_5.1" type="bike" depart="31.00" arrival="47.00">
        <route edges="E6 E7"/>
    </vehicle>

    <vehicle id="bike_1.0" type="bike" depart="4.00" arrival="50.00">
        <route edges="E0 E1 E25 E22 E7"/>
    </vehicle>

    <vehicle id="t_7.0" type="truck" depart="19.00" color="blue" arrival="50.00">
        <route edges="E4 E5"/>
    </vehicle>

    <vehicle id="bike_10.0" type="bike" depart="2.00" arrival="57.00">
        <route edges="E8 E9 E19 E12 E20 E18"/>
    </vehicle>

    <vehicle id="bike_2.0" type="bike" depart="5.00" arrival="57.00">
        <route edges="E0 E1 E25 E5"/>
    </vehicle>

    <vehicle id="f_7.1" type="car" depart="40.00" color="red" arrival="57.00">
        <route edges="E14 E15"/>
    </vehicle>

    <vehicle id="b-1.0" type="bus" depart="0.00" arrival="59.00">
        <route edges="E0 E1 E25 E22 E7"/>
    </vehicle>

    <vehicle id="bike_3.0" type="bike" depart="6.00" arrival="59.00">
        <route edges="E0 E1 E26 E27"/>
    </vehicle>

    <vehicle id="f_0.0" type="car" depart="15.00" departSpeed="20.00" color="red" speedFactor="1.4399" arrival="59.00">
        <route edges="E0 E1 E25 E5"/>
    </vehicle>

    <vehicle id="f_101.0" type="bike" depart="16.00" arrival="63.00">
        <route edges="E0 E1 E25 E22 E7"/>
    </vehicle>

    <vehicle id="f_1.1" type="car" depart="30.00" color="red" arrival="63.00">
        <route edges="E8 E9 E10"/>
    </vehicle>

    <vehicle id="f_17.0" type="car" depart="21.00" color="red" arrival="64.00">
        <route edges="E8 E9 E19 E12 E20 E18"/>
    </vehicle>

    <vehicle id="bike_11.0" type="bike" depart="4.00" arrival="66.00">
        <route edges="E8 E9 E19 E12 E13"/>
    </vehicle>

    <vehicle id="f_12.1" type="car" depart="45.00" color="red" arrival="66.00">
        <route edges="E8 E24 E26 E27"/>
    </vehicle>

    <vehicle id="f_102.0" type="bike" depart="18.00" arrival="68.00">
        <route edges="E0 E1 E25 E5"/>
    </vehicle>

    <vehicle id="f_16.0" type="car" depart="20.00" color="red" arrival="68.00">
        <route edges="E8 E9 E19 E12 E13"/>
    </vehicle>

    <vehicle id="f_2.0" type="car" depart="34.00" departSpeed="30.00" color="red" speedFactor="2.1598" arrival="71.00">
        <route edges="E0 E1 E26 E27"/>
    </vehicle>

    <vehicle id="f_103.0" type="bike" depart="20.00" arrival="72.00">
        <route edges="E0 E1 E26 E27"/>
    </vehicle>

    <vehicle id="bike_10.1" type="bike" depart="23.00" arrival="73.00">
        <route edges="E8 E9 E19 E12 E20 E18"/>
    </vehicle>

    <vehicle id="t_8.0" type="truck" depart="24.00" color="blue" arrival="75.00">
        <route edges="E4 E22 E7"/>
    </vehicle>

    <vehicle id="bike_10.2" type="bike" depart="29.00" arrival="76.00">
        <route edges="E8 E9 E19 E12 E20 E18"/>
    </vehicle>

    <vehicle id="t_11.0" type="truck" depart="14.00" color="blue" arrival="79.00">
        <route edges="E4 E22 E23 E9 E19 E12 E20 E18"/>
    </vehicle>

    <vehicle id="f_24.0" type="car" depart="35.00" color="red" arrival="80.00">
        <route edges="E4 E5"/>
    </vehicle>

    <vehicle id="t_10.0" type="truck" depart="9.00" color="blue" arrival="84.00">
        <route edges="E4 E22 E23 E9 E19 E12 E13"/>
    </vehicle>

    <vehicle id="bike_10.3" type="bike" depart="44.00" arrival="86.00">
        <route edges="E8 E9 E19 E12 E20 E18"/>
    </vehicle>

    <vehicle id="f_28.0" type="car" depart="32.00" color="red" arrival="87.00">
        <route edges="E4 E22 E23 E9 E19 E12 E13"/>
    </vehicle>

    <vehicle id="f_25.0" type="car" depart="46.00" color="red" arrival="87.00">
        <route edges="E4 E22 E7"/>
    </vehicle>

    <vehicle id="bike_13.1" type="bike" depart="72.00" arrival="88.00">
        <route edges="E14 E21 E17 E18"/>
    </vehicle>

    <vehicle id="bike_11.1" type="bike" depart="36.00" arrival="90.00">
        <route edges="E8 E9 E19 E12 E13"/>
    </vehicle>

    <vehicle id="bike_14.1" type="bike" depart="72.00" arrival="90.00">
        <route edges="E16 E17 E18"/>
    </vehicle>

    <vehicle id="bike_6.1" type="bike" depart="48.00" arrival="92.00">
        <route edges="E4 E22 E7"/>
    </vehicle>

    <vehicle id="f_8.1" type="car" depart="74.00" color="red" arrival="92.00">
        <route edges="E14 E21 E17 E18"/>
    </vehicle>

    <vehicle id="t_1.0" type="truck" depart="40.00" color="blue" arrival="93.00">
        <route edges="E0 E1 E26 E27"/>
    </vehicle>

    <vehicle id="bike_6.2" type="bike" depart="50.00" arrival="94.00">
        <route edges="E4 E22 E7"/>
    </vehicle>

    <vehicle id="bike_4.0" type="bike" depart="7.00" arrival="95.00">
        <route edges="E0 E1 E25 E22 E23 E9 E19 E12 E13"/>
    </vehicle>

    <vehicle id="f_1.2" type="car" depart="60.00" color="red" arrival="95.00">
        <route edges="E8 E9 E10"/>
    </vehicle>

    <vehicle id="3.1" type="truck" depart="72.00" color="blue" arrival="96.00">
        <route edges="E4 E22 E7"/>
    </vehicle>

    <vehicle id="bike_6.3" type="bike" depart="75.00" arrival="96.00">
        <route edges="E4 E22 E7"/>
    </vehicle>

    <vehicle id="f_9.1" type="car" depart="74.00" color="red" arrival="96.00">
        <route edges="E16 E17 E18"/>
    </vehicle>

    <vehicle id="f_7.2" type="car" depart="80.00" color="red" arrival="97.00">
        <route edges="E14 E15"/>
    </vehicle>

    <vehicle id="bike_5.2" type="bike" depart="80.00" arrival="98.00">
        <route edges="E6 E7"/>
    </vehicle>

    <vehicle id="f_4.0" type="car" depart="35.00" departSpeed="5.00" color="red" speedFactor="0.9732" arrival="99.00">
        <route edges="E0 E1 E25 E22 E23 E9 E10"/>
    </vehicle>

    <vehicle id="f_10.1" type="car" depart="72.00" color="red" arrival="99.00">
        <route edges="E11 E12 E13"/>
    </vehicle>

    <vehicle id="1.0" type="truck" depart="0.00" color="blue" arrival="100.00">
        <route edges="E6 E23 E9 E19 E12 E20 E18"/>
    </vehicle>

    <vehicle id="t_9.0" type="truck" depart="29.00" color="blue" arrival="100.00">
        <route edges="E4 E22 E23 E24 E26 E27"/>
    </vehicle>

    <vehicle id="f_11.1" type="car" depart="75.00" color="red" arrival="100.00">
        <route edges="E11 E12 E20 E18"/>
    </vehicle>

    <vehicle id="f_27.0" type="car" depart="40.00" color="red" arrival="101.00">
        <route edges="E4 E22 E23 E9 E10"/>
    </vehicle>

    <vehicle id="f_26.0" type="car" depart="38.00" color="red" arrival="103.00">
        <route edges="E4 E22 E23 E24 E26 E27"/>
    </vehicle>

    <vehicle id="f_13.1" type="car" depart="61.00" color="red" arrival="105.00">
        <route edges="E8 E24 E25 E5"/>
    </vehicle>

    <vehicle id="bike_10.4" type="bike" depart="58.00" arrival="106.00">
        <route edges="E8 E9 E19 E12 E20 E18"/>
    </vehicle>

    <vehicle id="f_14.1" type="car" depart="46.00" color="red" arrival="108.00">
        <route edges="E8 E24 E25 E22 E7"/>
    </vehicle>

    <vehicle id="f_104.0" type="bike" depart="21.00" arrival="110.00">
        <route edges="E0 E1 E25 E22 E23 E9 E19 E12 E13"/>
    </vehicle>

    <vehicle id="t_4.0" type="truck" depart="53.00" color="blue" arrival="110.00">
        <route edges="E0 E1 E25 E5"/>
    </vehicle>

    <vehicle id="f_29.0" type="car" depart="43.00" color="red" arrival="110.00">
        <route edges="E4 E22 E23 E9 E19 E12 E20 E18"/>
    </vehicle>

    <vehicle id="bike_6.4" type="bike" depart="96.00" arrival="119.00">
        <route edges="E4 E22 E7"/>
    </vehicle>

    <vehicle id="t_5.0" type="truck" depart="58.00" color="blue" arrival="120.00">
        <route edges="E0 E1 E25 E22 E7"/>
    </vehicle>

    <vehicle id="f_25.1" type="car" depart="92.00" color="red" arrival="122.00">
        <route edges="E4 E22 E7"/>
    </vehicle>

    <vehicle id="bike_12.1" type="bike" depart="74.00" arrival="128.00">
        <route edges="E8 E9 E10"/>
    </vehicle>

    <vehicle id="f_14.2" type="car" depart="96.00" color="red" arrival="130.00">
        <route edges="E8 E24 E25 E22 E7"/>
    </vehicle>

    <vehicle id="f_28.1" type="car" depart="79.00" color="red" arrival="131.00">
        <route edges="E4 E22 E23 E9 E19 E12 E13"/>
    </vehicle>

    <vehicle id="bike_8.0" type="bike" depart="9.00" arrival="132.00">
        <route edges="E6 E23 E9 E19 E12 E20 E18"/>
    </vehicle>

    <vehicle id="f_12.2" type="car" depart="91.00" color="red" arrival="132.00">
        <route edges="E8 E24 E26 E27"/>
    </vehicle>

    <vehicle id="f_102.1" type="bike" depart="87.00" arrival="133.00">
        <route edges="E0 E1 E25 E5"/>
    </vehicle>

    <vehicle id="bike_10.5" type="bike" depart="72.00" arrival="134.00">
        <route edges="E8 E9 E19 E12 E20 E18"/>
    </vehicle>

    <vehicle id="bike_2.1" type="bike" depart="84.00" arrival="135.00">
        <route edges="E0 E1 E25 E5"/>
    </vehicle>

    <vehicle id="f_7.3" type="car" depart="120.00" color="red" arrival="137.00">
        <route edges="E14 E15"/>
    </vehicle>

    <vehicle id="f_3.0" type="car" depart="81.00" departSpeed="30.00" color="red" speedFactor="2.1598" arrival="139.00">
        <route edges="E0 E1 E25 E22 E7"/>
    </vehicle>

    <vehicle id="f_103.1" type="bike" depart="89.00" arrival="139.00">
        <route edges="E0 E1 E26 E27"/>
    </vehicle>

    <vehicle id="bike_3.1" type="bike" depart="91.00" arrival="141.00">
        <route edges="E0 E1 E26 E27"/>
    </vehicle>

    <vehicle id="bike_9.0" type="bike" depart="11.00" arrival="142.00">
        <route edges="E6 E23 E9 E19 E12 E13"/>
    </vehicle>

    <vehicle id="bike_1.1" type="bike" depart="82.00" arrival="142.00">
        <route edges="E0 E1 E25 E22 E7"/>
    </vehicle>

    <vehicle id="t_2.0" type="truck" depart="45.00" color="blue" arrival="143.00">
        <route edges="E0 E1 E25 E22 E23 E9 E19 E12 E20 E18"/>
    </vehicle>

    <vehicle id="bike_6.5" type="bike" depart="120.00" arrival="144.00">
        <route edges="E4 E22 E7"/>
    </vehicle>

    <vehicle id="bike_11.2" type="bike" depart="73.00" arrival="146.00">
        <route edges="E8 E9 E19 E12 E13"/>
    </vehicle>

    <vehicle id="f_1.3" type="car" depart="90.00" color="red" arrival="147.00">
        <route edges="E8 E9 E10"/>
    </vehicle>

    <vehicle id="f_5.0" type="car" depart="39.00" departSpeed="15.00" color="red" speedFactor="1.1797" arrival="148.00">
        <route edges="E0 E1 E25 E22 E23 E9 E19 E12 E13"/>
    </vehicle>

    <vehicle id="f_101.1" type="bike" depart="86.00" arrival="150.00">
        <route edges="E0 E1 E25 E22 E7"/>
    </vehicle>

    <vehicle id="f_26.1" type="car" depart="105.00" color="red" arrival="150.00">
        <route edges="E4 E22 E23 E24 E26 E27"/>
    </vehicle>

    <vehicle id="t_3.0" type="truck" depart="49.00" color="blue" arrival="153.00">
        <route edges="E0 E1 E25 E22 E23 E9 E19 E12 E13"/>
    </vehicle>

    <vehicle id="f_16.1" type="car" depart="76.00" color="red" arrival="154.00">
        <route edges="E8 E9 E19 E12 E13"/>
    </vehicle>

    <vehicle id="f_17.1" type="car" depart="77.00" color="red" arrival="154.00">
        <route edges="E8 E9 E19 E12 E20 E18"/>
    </vehicle>

    <vehicle id="f_12.3" type="car" depart="135.00" color="red" arrival="154.00">
        <route edges="E8 E24 E26 E27"/>
    </vehicle>

    <vehicle id="bike_10.6" type="bike" depart="87.00" arrival="155.00">
        <route edges="E8 E9 E19 E12 E20 E18"/>
    </vehicle>

    <vehicle id="f_18.0" type="car" depart="13.00" color="red" arrival="156.00">
        <route edges="E6 E23 E24 E25 E5"/>
    </vehicle>

    <vehicle id="bike_2.2" type="bike" depart="109.00" arrival="158.00">
        <route edges="E0 E1 E25 E5"/>
    </vehicle>

    <vehicle id="f_1.4" type="car" depart="120.00" color="red" arrival="161.00">
        <route edges="E8 E9 E10"/>
    </vehicle>

    <vehicle id="f_13.2" type="car" depart="121.00" color="red" arrival="162.00">
        <route edges="E8 E24 E25 E5"/>
    </vehicle>

    <vehicle id="bike_10.7" type="bike" depart="101.00" arrival="163.00">
        <route edges="E8 E9 E19 E12 E20 E18"/>
    </vehicle>

    <vehicle id="f_14.3" type="car" depart="136.00" color="red" arrival="163.00">
        <route edges="E8 E24 E25 E22 E7"/>
    </vehicle>

    <vehicle id="f_102.2" type="bike" depart="115.00" arrival="164.00">
        <route edges="E0 E1 E25 E5"/>
    </vehicle>

    <vehicle id="f_8.2" type="car" depart="146.00" color="red" arrival="165.00">
        <route edges="E14 E21 E17 E18"/>
    </vehicle>

    <vehicle id="bike_11.3" type="bike" depart="108.00" arrival="166.00">
        <route edges="E8 E9 E19 E12 E13"/>
    </vehicle>

    <vehicle id="bike_13.2" type="bike" depart="144.00" arrival="166.00">
        <route edges="E14 E21 E17 E18"/>
    </vehicle>

    <vehicle id="f_3.1" type="car" depart="106.00" departSpeed="30.00" color="red" speedFactor="2.1598" arrival="167.00">
        <route edges="E0 E1 E25 E22 E7"/>
    </vehicle>

    <vehicle id="f_103.2" type="bike" depart="117.00" arrival="167.00">
        <route edges="E0 E1 E26 E27"/>
    </vehicle>

    <vehicle id="f_24.1" type="car" depart="135.00" color="red" arrival="168.00">
        <route edges="E4 E5"/>
    </vehicle>

    <vehicle id="bike_14.2" type="bike" depart="144.00" arrival="169.00">
        <route edges="E16 E17 E18"/>
    </vehicle>

    <vehicle id="f_10.2" type="car" depart="144.00" color="red" arrival="170.00">
        <route edges="E11 E12 E13"/>
    </vehicle>

    <vehicle id="bike_10.8" type="bike" depart="116.00" arrival="171.00">
        <route edges="E8 E9 E19 E12 E20 E18"/>
    </vehicle>

    <vehicle id="bike_3.2" type="bike" depart="125.00" arrival="173.00">
        <route edges="E0 E1 E26 E27"/>
    </vehicle>

    <vehicle id="bike_10.9" type="bike" depart="130.00" arrival="174.00">
        <route edges="E8 E9 E19 E12 E20 E18"/>
    </vehicle>

    <vehicle id="t_6.0" type="truck" depart="63.00" color="blue" arrival="175.00">
        <route edges="E0 E1 E25 E22 E23 E9 E19 E12 E13"/>
    </vehicle>

    <vehicle id="bike_1.2" type="bike" depart="108.00" arrival="175.00">
        <route edges="E0 E1 E25 E22 E7"/>
    </vehicle>

    <vehicle id="f_2.1" type="car" depart="140.00" departSpeed="30.00" color="red" speedFactor="2.1598" arrival="176.00">
        <route edges="E0 E1 E26 E27"/>
    </vehicle>

    <vehicle id="f_7.4" type="car" depart="160.00" color="red" arrival="176.00">
        <route edges="E14 E15"/>
    </vehicle>

    <vehicle id="f_9.2" type="car" depart="146.00" color="red" arrival="177.00">
        <route edges="E16 E17 E18"/>
    </vehicle>

    <vehicle id="bike_12.2" type="bike" depart="146.00" arrival="180.00">
        <route edges="E8 E9 E10"/>
    </vehicle>

    <vehicle id="f_101.2" type="bike" depart="114.00" arrival="181.00">
        <route edges="E0 E1 E25 E22 E7"/>
    </vehicle>

    <vehicle id="t_1.1" type="truck" depart="122.00" color="blue" arrival="183.00">
        <route edges="E0 E1 E26 E27"/>
    </vehicle>

    <vehicle id="f_4.1" type="car" depart="94.00" departSpeed="5.00" color="red" speedFactor="1.0325" arrival="185.00">
        <route edges="E0 E1 E25 E22 E23 E9 E10"/>
    </vehicle>

    <vehicle id="f_29.1" type="car" depart="128.00" color="red" arrival="186.00">
        <route edges="E4 E22 E23 E9 E19 E12 E20 E18"/>
    </vehicle>

    <vehicle id="bike_6.6" type="bike" depart="147.00" arrival="187.00">
        <route edges="E4 E22 E7"/>
    </vehicle>

    <vehicle id="bike_10.10" type="bike" depart="144.00" arrival="191.00">
        <route edges="E8 E9 E19 E12 E20 E18"/>
    </vehicle>

    <vehicle id="f_3.2" type="car" depart="152.00" departSpeed="30.00" color="red" speedFactor="2.1598" arrival="192.00">
        <route edges="E0 E1 E25 E22 E7"/>
    </vehicle>

    <vehicle id="f_1.5" type="car" depart="151.00" color="red" arrival="192.00">
        <route edges="E8 E9 E10"/>
    </vehicle>

    <vehicle id="bike_1.3" type="bike" depart="153.00" arrival="196.00">
        <route edges="E0 E1 E25 E22 E7"/>
    </vehicle>

    <vehicle id="bike_11.4" type="bike" depart="145.00" arrival="198.00">
        <route edges="E8 E9 E19 E12 E13"/>
    </vehicle>

    <vehicle id="f_25.2" type="car" depart="164.00" color="red" arrival="198.00">
        <route edges="E4 E22 E7"/>
    </vehicle>

    <vehicle id="f_17.2" type="car" depart="149.00" color="red" arrival="199.00">
        <route edges="E8 E9 E19 E12 E20 E18"/>
    </vehicle>

    <vehicle id="f_16.2" type="car" depart="148.00" color="red" arrival="200.00">
        <route edges="E8 E9 E19 E12 E13"/>
    </vehicle>

    <vehicle id="f_102.3" type="bike" depart="158.00" arrival="202.00">
        <route edges="E0 E1 E25 E5"/>
    </vehicle>

    <vehicle id="3.2" type="truck" depart="144.00" color="blue" arrival="202.00">
        <route edges="E4 E22 E7"/>
    </vehicle>

    <vehicle id="f_5.1" type="car" depart="107.00" departSpeed="15.00" color="red" speedFactor="1.0799" arrival="203.00">
        <route edges="E0 E1 E25 E22 E23 E9 E19 E12 E13"/>
    </vehicle>

    <vehicle id="bike_2.3" type="bike" depart="155.00" arrival="203.00">
        <route edges="E0 E1 E25 E5"/>
    </vehicle>

    <vehicle id="f_11.2" type="car" depart="147.00" color="red" arrival="206.00">
        <route edges="E11 E12 E20 E18"/>
    </vehicle>

    <vehicle id="f_27.1" type="car" depart="138.00" color="red" arrival="207.00">
        <route edges="E4 E22 E23 E9 E10"/>
    </vehicle>

    <vehicle id="bike_6.7" type="bike" depart="168.00" arrival="207.00">
        <route edges="E4 E22 E7"/>
    </vehicle>

    <vehicle id="f_13.3" type="car" depart="188.00" color="red" arrival="208.00">
        <route edges="E8 E24 E25 E5"/>
    </vehicle>

    <vehicle id="f_12.4" type="car" depart="185.00" color="red" arrival="210.00">
        <route edges="E8 E24 E26 E27"/>
    </vehicle>

    <vehicle id="f_4.2" type="car" depart="141.00" departSpeed="5.00" color="red" speedFactor="1.0314" arrival="211.00">
        <route edges="E0 E1 E25 E22 E23 E9 E10"/>
    </vehicle>

    <vehicle id="bike_3.3" type="bike" depart="162.00" arrival="212.00">
        <route edges="E0 E1 E26 E27"/>
    </vehicle>

    <vehicle id="f_103.3" type="bike" depart="160.00" arrival="213.00">
        <route edges="E0 E1 E26 E27"/>
    </vehicle>

    <vehicle id="b-3.1" type="bus" depart="180.00" arrival="214.00">
        <route edges="E4 E22 E7"/>
    </vehicle>

    <vehicle id="bike_6.8" type="bike" depart="192.00" arrival="214.00">
        <route edges="E4 E22 E7"/>
    </vehicle>

    <vehicle id="f_19.0" type="car" depart="16.00" color="red" arrival="215.00">
        <route edges="E6 E23 E24 E26 E27"/>
    </vehicle>

    <vehicle id="bike_10.11" type="bike" depart="159.00" arrival="216.00">
        <route edges="E8 E9 E19 E12 E20 E18"/>
    </vehicle>

    <vehicle id="bike_4.1" type="bike" depart="111.00" arrival="217.00">
        <route edges="E0 E1 E25 E22 E23 E9 E19 E12 E13"/>
    </vehicle>

    <vehicle id="f_7.5" type="car" depart="200.00" color="red" arrival="217.00">
        <route edges="E14 E15"/>
    </vehicle>

    <vehicle id="f_1.6" type="car" depart="183.00" color="red" arrival="218.00">
        <route edges="E8 E9 E10"/>
    </vehicle>

    <vehicle id="bike_10.12" type="bike" depart="173.00" arrival="222.00">
        <route edges="E8 E9 E19 E12 E20 E18"/>
    </vehicle>

    <vehicle id="f_104.1" type="bike" depart="120.00" arrival="223.00">
        <route edges="E0 E1 E25 E22 E23 E9 E19 E12 E13"/>
    </vehicle>

    <vehicle id="2.1" type="truck" depart="180.00" color="blue" arrival="226.00">
        <route edges="E8 E9 E19 E12 E20 E18"/>
    </vehicle>

    <vehicle id="bike_11.5" type="bike" depart="181.00" arrival="230.00">
        <route edges="E8 E9 E19 E12 E13"/>
    </vehicle>

    <vehicle id="bike_5.3" type="bike" depart="216.00" arrival="232.00">
        <route edges="E6 E7"/>
    </vehicle>

    <vehicle id="bike_10.13" type="bike" depart="193.00" arrival="232.00">
        <route edges="E8 E9 E19 E12 E20 E18"/>
    </vehicle>

    <vehicle id="bike_2.4" type="bike" depart="190.00" arrival="233.00">
        <route edges="E0 E1 E25 E5"/>
    </vehicle>

    <vehicle id="f_21.0" type="car" depart="21.00" color="red" arrival="235.00">
        <route edges="E6 E23 E9 E19 E12 E20 E18"/>
    </vehicle>

    <vehicle id="f_0.1" type="car" depart="200.00" departSpeed="20.00" color="red" speedFactor="1.4399" arrival="236.00">
        <route edges="E0 E1 E25 E5"/>
    </vehicle>

    <vehicle id="bike_14.3" type="bike" depart="216.00" arrival="237.00">
        <route edges="E16 E17 E18"/>
    </vehicle>

    <vehicle id="f_22.0" type="car" depart="24.00" color="red" arrival="238.00">
        <route edges="E6 E23 E9 E10"/>
    </vehicle>

    <vehicle id="bike_10.14" type="bike" depart="202.00" arrival="240.00">
        <route edges="E8 E9 E19 E12 E20 E18"/>
    </vehicle>

    <vehicle id="bike_13.3" type="bike" depart="216.00" arrival="242.00">
        <route edges="E14 E21 E17 E18"/>
    </vehicle>

    <vehicle id="f_26.2" type="car" depart="195.00" color="red" arrival="243.00">
        <route edges="E4 E22 E23 E24 E26 E27"/>
    </vehicle>

    <vehicle id="bike_6.9" type="bike" depart="219.00" arrival="243.00">
        <route edges="E4 E22 E7"/>
    </vehicle>

    <vehicle id="f_8.3" type="car" depart="218.00" color="red" arrival="243.00">
        <route edges="E14 E21 E17 E18"/>
    </vehicle>

    <vehicle id="f_9.3" type="car" depart="218.00" color="red" arrival="244.00">
        <route edges="E16 E17 E18"/>
    </vehicle>

    <vehicle id="f_22.1" type="car" depart="32.00" color="red" arrival="246.00">
        <route edges="E6 E23 E9 E10"/>
    </vehicle>

    <vehicle id="f_28.2" type="car" depart="151.00" color="red" arrival="246.00">
        <route edges="E4 E22 E23 E9 E19 E12 E13"/>
    </vehicle>

    <vehicle id="f_19.1" type="car" depart="75.00" color="red" arrival="249.00">
        <route edges="E6 E23 E24 E26 E27"/>
    </vehicle>

    <vehicle id="f_20.1" type="car" depart="225.00" color="red" arrival="249.00">
        <route edges="E6 E7"/>
    </vehicle>

    <vehicle id="f_101.3" type="bike" depart="156.00" arrival="250.00">
        <route edges="E0 E1 E25 E22 E7"/>
    </vehicle>

    <vehicle id="f_1.7" type="car" depart="210.00" color="red" arrival="250.00">
        <route edges="E8 E9 E10"/>
    </vehicle>

    <vehicle id="bike_8.1" type="bike" depart="29.00" arrival="251.00">
        <route edges="E6 E23 E9 E19 E12 E20 E18"/>
    </vehicle>

    <vehicle id="f_102.4" type="bike" depart="203.00" arrival="255.00">
        <route edges="E0 E1 E25 E5"/>
    </vehicle>

    <vehicle id="f_23.0" type="car" depart="27.00" color="red" arrival="256.00">
        <route edges="E6 E23 E9 E19 E12 E13"/>
    </vehicle>

    <vehicle id="bike_5.4" type="bike" depart="238.00" arrival="257.00">
        <route edges="E6 E7"/>
    </vehicle>

    <vehicle id="f_4.3" type="car" depart="164.00" departSpeed="5.00" color="red" speedFactor="1.1236" arrival="257.00">
        <route edges="E0 E1 E25 E22 E23 E9 E10"/>
    </vehicle>

    <vehicle id="f_103.4" type="bike" depart="204.00" arrival="258.00">
        <route edges="E0 E1 E26 E27"/>
    </vehicle>

    <vehicle id="f_14.4" type="car" depart="191.00" color="red" arrival="258.00">
        <route edges="E8 E24 E25 E22 E7"/>
    </vehicle>

    <vehicle id="f_7.6" type="car" depart="240.00" color="red" arrival="258.00">
        <route edges="E14 E15"/>
    </vehicle>

    <vehicle id="bike_8.2" type="bike" depart="36.00" arrival="260.00">
        <route edges="E6 E23 E9 E19 E12 E20 E18"/>
    </vehicle>

    <vehicle id="bike_5.5" type="bike" depart="246.00" arrival="262.00">
        <route edges="E6 E7"/>
    </vehicle>

    <vehicle id="bike_3.4" type="bike" depart="210.00" arrival="262.00">
        <route edges="E0 E1 E26 E27"/>
    </vehicle>

    <vehicle id="bike_12.3" type="bike" depart="218.00" arrival="262.00">
        <route edges="E8 E9 E10"/>
    </vehicle>

    <vehicle id="bike_9.1" type="bike" depart="45.00" arrival="263.00">
        <route edges="E6 E23 E9 E19 E12 E13"/>
    </vehicle>

    <vehicle id="f_14.5" type="car" depart="227.00" color="red" arrival="264.00">
        <route edges="E8 E24 E25 E22 E7"/>
    </vehicle>

    <vehicle id="bike_10.15" type="bike" depart="216.00" arrival="266.00">
        <route edges="E8 E9 E19 E12 E20 E18"/>
    </vehicle>

    <vehicle id="f_12.5" type="car" depart="225.00" color="red" arrival="266.00">
        <route edges="E8 E24 E26 E27"/>
    </vehicle>

    <vehicle id="f_2.2" type="car" depart="222.00" departSpeed="30.00" color="red" speedFactor="2.1598" arrival="267.00">
        <route edges="E0 E1 E26 E27"/>
    </vehicle>

    <vehicle id="t_8.1" type="truck" depart="230.00" color="blue" arrival="271.00">
        <route edges="E4 E22 E7"/>
    </vehicle>

    <vehicle id="bike_11.6" type="bike" depart="217.00" arrival="272.00">
        <route edges="E8 E9 E19 E12 E13"/>
    </vehicle>

    <vehicle id="bike_2.5" type="bike" depart="226.00" arrival="273.00">
        <route edges="E0 E1 E25 E5"/>
    </vehicle>

    <vehicle id="3.3" type="truck" depart="216.00" color="blue" arrival="273.00">
        <route edges="E4 E22 E7"/>
    </vehicle>

    <vehicle id="f_11.3" type="car" depart="219.00" color="red" arrival="273.00">
        <route edges="E11 E12 E20 E18"/>